
                                 *****************
                                 * O   R   C   A *
                                 *****************

           --- An Ab Initio, DFT and Semiempirical electronic structure package ---

                  #######################################################
                  #                        -***-                        #
                  #  Department of molecular theory and spectroscopy    #
                  #              Directorship: Frank Neese              #
                  # Max Planck Institute for Chemical Energy Conversion #
                  #                  D-45470 Muelheim/Ruhr              #
                  #                       Germany                       #
                  #                                                     #
                  #                  All rights reserved                #
                  #                        -***-                        #
                  #######################################################


                         Program Version 3.0.3 - RELEASE   -


 With contributions from (in alphabetic order):
   Ute Becker             : Parallelization
   Dmytro Bykov           : SCF Hessian
   Dmitry Ganyushin       : Spin-Orbit,Spin-Spin,Magnetic field MRCI
   Andreas Hansen         : Spin unrestricted coupled pair/coupled cluster methods
   Dimitrios Liakos       : Extrapolation schemes; parallel MDCI
   Robert Izsak           : Overlap fitted RIJCOSX, COSX-SCS-MP3
   Christian Kollmar      : KDIIS, OOCD, Brueckner-CCSD(T), CCSD density
   Simone Kossmann        : Meta GGA functionals, TD-DFT gradient, OOMP2, MP2 Hessian
   Taras Petrenko         : DFT Hessian,TD-DFT gradient, ASA and ECA modules, normal mode analysis, Resonance Raman, ABS, FL, XAS/XES, NRVS
   Christoph Reimann      : Effective Core Potentials
   Michael Roemelt        : Restricted open shell CIS
   Christoph Riplinger    : Improved optimizer, TS searches, QM/MM, DLPNO-CCSD
   Barbara Sandhoefer     : DKH picture change effects
   Igor Schapiro          : Molecular dynamics
   Kantharuban Sivalingam : CASSCF convergence, NEVPT2
   Boris Wezisla          : Elementary symmetry handling
   Frank Wennmohs         : Technical directorship


 We gratefully acknowledge several colleagues who have allowed us to
 interface, adapt or use parts of their codes:
   Stefan Grimme, W. Hujo, H. Kruse, T. Risthaus : VdW corrections, initial TS optimization,
                                                   DFT functionals, gCP
   Ed Valeev                                     : LibInt (2-el integral package), F12 methods
   Garnet Chan, S. Sharma, R. Olivares           : DMRG
   Ulf Ekstrom                                   : XCFun DFT Library
   Mihaly Kallay                                 : mrcc  (arbitrary order and MRCC methods)
   Andreas Klamt, Michael Diedenhofen            : otool_cosmo (COSMO solvation model)
   Frank Weinhold                                : gennbo (NPA and NBO analysis)
   Christopher J. Cramer and Donald G. Truhlar   : smd solvation model


 Your calculation uses the libint2 library for the computation of 2-el integrals
 For citations please refer to: http://libint.valeyev.net

 This ORCA versions uses:
   CBLAS   interface :  Fast vector & matrix operations
   LAPACKE interface :  Fast linear algebra routines
   SCALAPACK package :  Parallel linear algebra routines


Your calculation utilizes the basis: 3-21G
Cite in your paper:
H - Ne: J.S. Binkley, J.A. Pople, W.J. Hehre, J. Am. Chem. Soc. 102 939 (1980)
Na - Ar: M.S. Gordon, J.S. Binkley, J.A. Pople, W.J. Pietro and W.J. Hehre,
         J. Am. Chem. Soc. 104, 2797 (1983).
 K - Ca: K.D. Dobbs, W.J. Hehre, J. Comput. Chem. 7, 359 (1986).
Ga - Kr: K.D. Dobbs, W.J. Hehre, J. Comput. Chem. 7, 359 (1986).
Sc - Zn: K.D. Dobbs, W.J. Hehre, J. Comput. Chem. 8, 861 (1987).
Y - Cd: K.D. Dobbs, W.J. Hehre, J. Comput. Chem. 8, 880 (1987).
Cs     : A 3-21G quality set derived from the Huzinage MIDI basis sets.
        E.D. Glendening and D. Feller, J. Phys. Chem. (to be published)

================================================================================
                                        WARNINGS
                       Please study these warnings very carefully!
================================================================================
Now building the actual basis set

WARNING: Geometry Optimization
  ===> : Switching off AutoStart
         For restart on a previous wavefunction, please use MOREAD


INFO   : the flag for use of LIBINT has been found!

================================================================================
                                       INPUT FILE
================================================================================
NAME = tmp/butane.inp
|  1> # ----------------------------------------------------------------
|  2> #            Orca input file - butane                 
|  3> # ----------------------------------------------------------------
|  4> ! opt HF
|  5> !  3-21G CHELPG 
|  6> * xyz   0   1  
|  7> C  -8.552000 1.288900 0.012900 
|  8> C  -7.260500 2.099900 0.066500 
|  9> H  -8.627300 0.745300 -0.952900 
| 10> H  -9.423600 1.970400 0.106400 
| 11> H  -8.582300 0.556500 0.847600 
| 12> C  -6.032200 1.192200 -0.061800 
| 13> H  -7.221500 2.647800 1.033300 
| 14> H  -7.266200 2.840000 -0.763300 
| 15> C  -4.740500 2.002400 -0.000900 
| 16> H  -4.708300 2.741400 -0.829600 
| 17> H  -3.868900 1.321300 -0.097600 
| 18> H  -4.666900 2.538300 0.969500 
| 19> H  -6.069600 0.647900 -1.030700 
| 20> H  -6.028100 0.449000 0.765200 
| 21> *                                                                 
| 22> 
| 23>                          ****END OF INPUT****
================================================================================

                       *****************************
                       * Geometry Optimization Run *
                       *****************************

Geometry optimization settings:
Update method            Update   .... BFGS
Choice of coordinates    CoordSys .... Redundant Internals
Initial Hessian          InHess   .... Almoef's Model

Convergence Tolerances:
Energy Change            TolE     ....  5.0000e-06 Eh
Max. Gradient            TolMAXG  ....  3.0000e-04 Eh/bohr
RMS Gradient             TolRMSG  ....  1.0000e-04 Eh/bohr
Max. Displacement        TolMAXD  ....  4.0000e-03 bohr
RMS Displacement         TolRMSD  ....  2.0000e-03 bohr

------------------------------------------------------------------------------
                        ORCA OPTIMIZATION COORDINATE SETUP
------------------------------------------------------------------------------

The optimization will be done in new redundant internal coordinates
Making redundant internal coordinates   ...  (new redundants) done
Evaluating the initial hessian          ...  (Almloef) done
Evaluating the coordinates              ...  done
Calculating the B-matrix                .... done
Calculating the G-matrix                .... done
Diagonalizing the G-matrix              .... done
The first mode is                       ....   28
The number of degrees of freedom        ....   36

    -----------------------------------------------------------------
                    Redundant Internal Coordinates


    -----------------------------------------------------------------
         Definition                    Initial Value    Approx d2E/dq
    -----------------------------------------------------------------
      1. B(C   1,C   0)                  1.5260         0.379155   
      2. B(H   2,C   0)                  1.1108         0.333574   
      3. B(H   3,C   0)                  1.1103         0.334165   
      4. B(H   4,C   0)                  1.1109         0.333513   
      5. B(C   5,C   1)                  1.5327         0.369918   
      6. B(H   6,C   1)                  1.1119         0.332211   
      7. B(H   7,C   1)                  1.1119         0.332249   
      8. B(C   8,C   5)                  1.5260         0.379130   
      9. B(H   9,C   8)                  1.1108         0.333595   
     10. B(H  10,C   8)                  1.1104         0.334129   
     11. B(H  11,C   8)                  1.1110         0.333386   
     12. B(H  12,C   5)                  1.1119         0.332205   
     13. B(H  13,C   5)                  1.1119         0.332280   
     14. A(H   3,C   0,H   4)          108.6614         0.284038   
     15. A(C   1,C   0,H   3)          109.5853         0.321149   
     16. A(H   2,C   0,H   3)          108.6847         0.284046   
     17. A(C   1,C   0,H   4)          110.3093         0.321046   
     18. A(C   1,C   0,H   2)          110.3646         0.321056   
     19. A(H   2,C   0,H   4)          109.1960         0.283960   
     20. A(C   0,C   1,C   5)          111.1358         0.363661   
     21. A(C   0,C   1,H   7)          108.8564         0.320847   
     22. A(H   6,C   1,H   7)          108.7280         0.283612   
     23. A(C   5,C   1,H   6)          109.6633         0.319550   
     24. A(C   0,C   1,H   6)          108.7900         0.320841   
     25. A(C   5,C   1,H   7)          109.6232         0.319556   
     26. A(C   1,C   5,C   8)          111.1365         0.363657   
     27. A(H  12,C   5,H  13)          108.7253         0.283615   
     28. A(C   1,C   5,H  13)          109.6668         0.319561   
     29. A(C   8,C   5,H  12)          108.8529         0.320837   
     30. A(C   1,C   5,H  12)          109.6263         0.319549   
     31. A(C   8,C   5,H  13)          108.7888         0.320848   
     32. A(C   5,C   8,H  10)          109.5905         0.321140   
     33. A(C   5,C   8,H   9)          110.3642         0.321056   
     34. A(H  10,C   8,H  11)          108.6597         0.284016   
     35. A(H   9,C   8,H  11)          109.1960         0.283946   
     36. A(C   5,C   8,H  11)          110.3064         0.321023   
     37. A(H   9,C   8,H  10)          108.6844         0.284044   
     38. D(H   6,C   1,C   0,H   4)    -60.3452         0.011460   
     39. D(H   7,C   1,C   0,H   3)    -59.0857         0.011460   
     40. D(C   5,C   1,C   0,H   3)   -179.9165         0.011460   
     41. D(H   7,C   1,C   0,H   2)     60.5690         0.011460   
     42. D(C   5,C   1,C   0,H   2)    -60.2617         0.011460   
     43. D(H   6,C   1,C   0,H   3)     59.2465         0.011460   
     44. D(H   7,C   1,C   0,H   4)   -178.6774         0.011460   
     45. D(H   6,C   1,C   0,H   2)    178.9012         0.011460   
     46. D(C   5,C   1,C   0,H   4)     60.4919         0.011460   
     47. D(H  12,C   5,C   1,H   6)   -179.7589         0.010939   
     48. D(C   8,C   5,C   1,H   7)     59.9174         0.010939   
     49. D(C   8,C   5,C   1,H   6)    -59.3826         0.010939   
     50. D(C   8,C   5,C   1,C   0)   -179.7043         0.010939   
     51. D(H  12,C   5,C   1,H   7)    -60.4589         0.010939   
     52. D(H  13,C   5,C   1,H   7)   -179.7597         0.010939   
     53. D(H  13,C   5,C   1,H   6)     60.9403         0.010939   
     54. D(H  13,C   5,C   1,C   0)    -59.3814         0.010939   
     55. D(H  12,C   5,C   1,C   0)     59.9194         0.010939   
     56. D(H  11,C   8,C   5,H  12)   -178.6739         0.011459   
     57. D(H  11,C   8,C   5,C   1)     60.4934         0.011459   
     58. D(H  10,C   8,C   5,H  13)     59.2435         0.011459   
     59. D(H  10,C   8,C   5,H  12)    -59.0828         0.011459   
     60. D(H  10,C   8,C   5,C   1)   -179.9155         0.011459   
     61. D(H   9,C   8,C   5,H  13)    178.9008         0.011459   
     62. D(H   9,C   8,C   5,H  12)     60.5746         0.011459   
     63. D(H  11,C   8,C   5,H  13)    -60.3476         0.011459   
     64. D(H   9,C   8,C   5,C   1)    -60.2581         0.011459   
    -----------------------------------------------------------------

Number of atoms                         .... 14
Number of degrees of freedom            .... 64

         *************************************************************
         *                GEOMETRY OPTIMIZATION CYCLE   1            *
         *************************************************************
---------------------------------
CARTESIAN COORDINATES (ANGSTROEM)
---------------------------------
  C     -8.552000    1.288900    0.012900
  C     -7.260500    2.099900    0.066500
  H     -8.627300    0.745300   -0.952900
  H     -9.423600    1.970400    0.106400
  H     -8.582300    0.556500    0.847600
  C     -6.032200    1.192200   -0.061800
  H     -7.221500    2.647800    1.033300
  H     -7.266200    2.840000   -0.763300
  C     -4.740500    2.002400   -0.000900
  H     -4.708300    2.741400   -0.829600
  H     -3.868900    1.321300   -0.097600
  H     -4.666900    2.538300    0.969500
  H     -6.069600    0.647900   -1.030700
  H     -6.028100    0.449000    0.765200

----------------------------
CARTESIAN COORDINATES (A.U.)
----------------------------
  NO LB      ZA    FRAG    MASS        X           Y           Z
   0 C     6.0000    0    12.011        -16.160937897294545          2.435668014011101          0.024377467127584
   1 C     6.0000    0    12.011        -13.720356595335248          3.968235908621236          0.125666787905763
   2 H     1.0000    0     1.008        -16.303234275178813          1.408412887611509         -1.800720033013561
   3 H     1.0000    0     1.008        -17.808023195620308          3.723516374278434          0.201066860649221
   4 H     1.0000    0     1.008        -16.218196599152357          1.051632593527177          1.601731871111653
   5 C     6.0000    0    12.011        -11.399205985039773          2.252931496860916         -0.116785075076333
   6 H     1.0000    0     1.008        -13.646657276112318          5.003616857396691          1.952654014180830
   7 H     1.0000    0     1.008        -13.731128034298600          5.366822220336354         -1.442427958022091
   8 C     6.0000    0    12.011         -8.958246737853694          3.783987610563915         -0.001700753520529
   9 H     1.0000    0     1.008         -8.897397556341430          5.180495223531719         -1.567716800701070
  10 H     1.0000    0     1.008         -7.311161439527931          2.496895140750150         -0.184437270670714
  11 H     1.0000    0     1.008         -8.819162894397090          4.796691845732313          1.832089486836654
  12 H     1.0000    0     1.008        -11.469881742448429          1.224353562167579         -1.947740726232634
  13 H     1.0000    0     1.008        -11.391458107890697          0.848487034130642          1.446018437676542

--------------------------------
INTERNAL COORDINATES (ANGSTROEM)
--------------------------------
 C      0   0   0   0.000000     0.000     0.000
 C      1   0   0   1.525964     0.000     0.000
 H      1   2   0   1.110829   110.365     0.000
 H      1   2   3   1.110347   109.585   240.345
 H      1   2   3   1.110879   110.309   120.754
 C      2   1   3   1.532678   111.136   299.738
 H      2   1   3   1.111943   108.790   178.901
 H      2   1   3   1.111912   108.856    60.569
 C      6   2   1   1.525982   111.136   180.296
 H      9   6   2   1.110811   110.364   299.742
 H      9   6   2   1.110376   109.591   180.085
 H      9   6   2   1.110982   110.306    60.493
 H      6   2   1   1.111948   109.626    59.919
 H      6   2   1   1.111887   109.667   300.619

---------------------------
INTERNAL COORDINATES (A.U.)
---------------------------
 C      0   0   0   0.000000     0.000     0.000
 C      1   0   0   2.883654     0.000     0.000
 H      1   2   0   2.099162   110.365     0.000
 H      1   2   3   2.098252   109.585   240.345
 H      1   2   3   2.099257   110.309   120.754
 C      2   1   3   2.896341   111.136   299.738
 H      2   1   3   2.101268   108.790   178.901
 H      2   1   3   2.101209   108.856    60.569
 C      6   2   1   2.883688   111.136   180.296
 H      9   6   2   2.099129   110.364   299.742
 H      9   6   2   2.098306   109.591   180.085
 H      9   6   2   2.099453   110.306    60.493
 H      6   2   1   2.101277   109.626    59.919
 H      6   2   1   2.101161   109.667   300.619

---------------------
BASIS SET INFORMATION
---------------------
There are 2 groups of distinct atoms

 Group   1 Type C   : 6s3p contracted to 3s2p pattern {321/21}
 Group   2 Type H   : 3s contracted to 2s pattern {21}

Atom   0C    basis set group =>   1
Atom   1C    basis set group =>   1
Atom   2H    basis set group =>   2
Atom   3H    basis set group =>   2
Atom   4H    basis set group =>   2
Atom   5C    basis set group =>   1
Atom   6H    basis set group =>   2
Atom   7H    basis set group =>   2
Atom   8C    basis set group =>   1
Atom   9H    basis set group =>   2
Atom  10H    basis set group =>   2
Atom  11H    basis set group =>   2
Atom  12H    basis set group =>   2
Atom  13H    basis set group =>   2
------------------------------------------------------------------------------
                           ORCA GTO INTEGRAL CALCULATION
------------------------------------------------------------------------------

                         BASIS SET STATISTICS AND STARTUP INFO

 # of primitive gaussian shells          ...   66
 # of primitive gaussian functions       ...   90
 # of contracted shell                   ...   40
 # of contracted basis functions         ...   56
 Highest angular momentum                ...    1
 Maximum contraction depth               ...    3
 Integral package used                   ... LIBINT
 Integral threshhold            Thresh   ...  2.500e-11
 Primitive cut-off              TCut     ...  2.500e-12


                              INTEGRAL EVALUATION

 One electron integrals                  ... done
 Pre-screening matrix                    ... done
 Shell pair data                         ... done (   0.000 sec)

-------------------------------------------------------------------------------
                                 ORCA SCF
-------------------------------------------------------------------------------

------------
SCF SETTINGS
------------
Hamiltonian:
 Ab initio Hamiltonian  Method          .... Hartree-Fock(GTOs)


General Settings:
 Integral files         IntName         .... tmp/butane
 Hartree-Fock type      HFTyp           .... RHF
 Total Charge           Charge          ....    0
 Multiplicity           Mult            ....    1
 Number of Electrons    NEL             ....   34
 Basis Dimension        Dim             ....   56
 Nuclear Repulsion      ENuc            ....    130.3817816380 Eh

Convergence Acceleration:
 DIIS                   CNVDIIS         .... on
   Start iteration      DIISMaxIt       ....    12
   Startup error        DIISStart       ....  0.200000
   # of expansion vecs  DIISMaxEq       ....     5
   Bias factor          DIISBfac        ....   1.050
   Max. coefficient     DIISMaxC        ....  10.000
 Newton-Raphson         CNVNR           .... off
 SOSCF                  CNVSOSCF        .... on
   Start iteration      SOSCFMaxIt      ....   150
   Startup grad/error   SOSCFStart      ....  0.003300
 Level Shifting         CNVShift        .... on
   Level shift para.    LevelShift      ....    0.2500
   Turn off err/grad.   ShiftErr        ....    0.0010
 Zerner damping         CNVZerner       .... off
 Static damping         CNVDamp         .... on
   Fraction old density DampFac         ....    0.7000
   Max. Damping (<1)    DampMax         ....    0.9800
   Min. Damping (>=0)   DampMin         ....    0.0000
   Turn off err/grad.   DampErr         ....    0.1000
 Fernandez-Rico         CNVRico         .... off

SCF Procedure:
 Maximum # iterations   MaxIter         ....   125
 SCF integral mode      SCFMode         .... Direct
   Integral package                     .... LIBINT
 Reset frequeny         DirectResetFreq ....    20
 Integral Threshold     Thresh          ....  2.500e-11 Eh
 Primitive CutOff       TCut            ....  2.500e-12 Eh

Convergence Tolerance:
 Convergence Check Mode ConvCheckMode   .... Total+1el-Energy
 Energy Change          TolE            ....  1.000e-08 Eh
 1-El. energy change                    ....  1.000e-05 Eh
 Orbital Gradient       TolG            ....  1.000e-05
 Orbital Rotation angle TolX            ....  1.000e-05
 DIIS Error             TolErr          ....  5.000e-07


Diagonalization of the overlap matrix:
Smallest eigenvalue                        ... 1.182e-02
Time for diagonalization                   ...    0.002 sec
Threshold for overlap eigenvalues          ... 1.000e-08
Number of eigenvalues below threshold      ... 0
Time for construction of square roots      ...    0.001 sec
Total time needed                          ...    0.003 sec

-------------------
DFT GRID GENERATION
-------------------

General Integration Accuracy     IntAcc      ...  4.340
Radial Grid Type                 RadialGrid  ... Gauss-Chebyshev
Angular Grid (max. acc.)         AngularGrid ... Lebedev-110
Angular grid pruning method      GridPruning ... 3 (G Style)
Weight generation scheme         WeightScheme... Becke
Basis function cutoff            BFCut       ...    1.0000e-11
Integration weight cutoff        WCut        ...    1.0000e-14
Grids for H and He will be reduced by one unit

# of grid points (after initial pruning)     ...  14564 (   0.0 sec)
# of grid points (after weights+screening)   ...  13551 (   0.0 sec)
nearest neighbour list constructed           ...    0.0 sec
Grid point re-assignment to atoms done       ...    0.0 sec
Grid point division into batches done        ...    0.0 sec
Reduced shell lists constructed in    0.1 sec

Total number of grid points                  ...    13551
Total number of batches                      ...      220
Average number of points per batch           ...       61
Average number of grid points per atom       ...      968
Average number of shells per batch           ...    30.97 (77.43%)
Average number of basis functions per batch  ...    45.02 (80.39%)
Average number of large shells per batch     ...    25.35 (81.86%)
Average number of large basis fcns per batch ...    37.69 (83.72%)
Maximum spatial batch extension              ...  18.47, 21.02, 21.59 au
Average spatial batch extension              ...   3.75,  4.01,  3.88 au

Time for grid setup =    0.135 sec

------------------------------
INITIAL GUESS: MODEL POTENTIAL
------------------------------
Loading Hartree-Fock densities                     ... done
Calculating cut-offs                               ... done
Setting up the integral package                    ... done
Initializing the effective Hamiltonian             ... done
Starting the Coulomb interaction                   ... done (   0.0 sec)
Reading the grid                                   ... done
Mapping shells                                     ... done
Starting the XC term evaluation                    ... done (   0.1 sec)
Transforming the Hamiltonian                       ... done (   0.0 sec)
Diagonalizing the Hamiltonian                      ... done (   0.0 sec)
Back transforming the eigenvectors                 ... done (   0.0 sec)
Now organizing SCF variables                       ... done
                      ------------------
                      INITIAL GUESS DONE (   0.3 sec)
                      ------------------
--------------
SCF ITERATIONS
--------------
ITER       Energy         Delta-E        Max-DP      RMS-DP      [F,P]     Damp
               ***  Starting incremental Fock matrix formation  ***
  0   -156.2257724043   0.000000000000 0.03829804  0.00377801  0.2004608 0.7000
  1   -156.2987212356  -0.072948831343 0.03360602  0.00312341  0.1305884 0.7000
                               ***Turning on DIIS***
  2   -156.3422930130  -0.043571777332 0.07968637  0.00678670  0.0780109 0.0000
  3   -156.0501423951   0.292150617915 0.02424833  0.00174529  0.0291558 0.0000
                      *** Initiating the SOSCF procedure ***
                           *** Shutting down DIIS ***
                      *** Re-Reading the Fockian *** 
                      *** Removing any level shift *** 
ITER      Energy       Delta-E        Grad      Rot      Max-DP    RMS-DP
  4   -156.39167672  -0.3415343243  0.002111  0.002111  0.007969  0.000392
               *** Restarting incremental Fock matrix formation ***
  5   -156.42704467  -0.0353679485  0.000507  0.000503  0.003463  0.000170
  6   -156.42705324  -0.0000085727  0.000196  0.000383  0.000943  0.000063
  7   -156.42705412  -0.0000008758  0.000056  0.000028  0.000093  0.000007
  8   -156.42705416  -0.0000000388  0.000006  0.000008  0.000019  0.000001
                  ***Gradient check signals convergence***
              ***Rediagonalizing the Fockian in SOSCF/NRSCF***

               *****************************************************
               *                     SUCCESS                       *
               *           SCF CONVERGED AFTER   9 CYCLES          *
               *****************************************************


----------------
TOTAL SCF ENERGY
----------------

Total Energy       :         -156.42705416 Eh           -4256.59654 eV

Components:
Nuclear Repulsion  :          130.38178164 Eh            3547.86865 eV
Electronic Energy  :         -286.80883579 Eh           -7804.46519 eV

One Electron Energy:         -467.51955737 Eh          -12721.85392 eV
Two Electron Energy:          180.71072158 Eh            4917.38873 eV

Virial components:
Potential Energy   :         -312.33609487 Eh           -8499.09723 eV
Kinetic Energy     :          155.90904071 Eh            4242.50068 eV
Virial Ratio       :            2.00332254


---------------
SCF CONVERGENCE
---------------

  Last Energy change         ...   -2.7603e-10  Tolerance :   1.0000e-08
  Last MAX-Density change    ...    4.2960e-06  Tolerance :   1.0000e-07
  Last RMS-Density change    ...    4.8538e-07  Tolerance :   5.0000e-09
  Last Orbital Gradient      ...    2.3812e-06  Tolerance :   1.0000e-05
  Last Orbital Rotation      ...    5.1806e-06  Tolerance :   1.0000e-05

             **** THE GBW FILE WAS UPDATED (tmp/butane.gbw) ****
             **** DENSITY FILE WAS UPDATED (tmp/butane.scfp.tmp) ****
             **** ENERGY FILE WAS UPDATED (tmp/butane.en.tmp) ****
----------------
ORBITAL ENERGIES
----------------

  NO   OCC          E(Eh)            E(eV) 
   0   2.0000     -11.163087      -303.7630 
   1   2.0000     -11.162870      -303.7571 
   2   2.0000     -11.157276      -303.6049 
   3   2.0000     -11.157063      -303.5991 
   4   2.0000      -1.072905       -29.1952 
   5   2.0000      -0.980020       -26.6677 
   6   2.0000      -0.851793       -23.1785 
   7   2.0000      -0.780721       -21.2445 
   8   2.0000      -0.641448       -17.4547 
   9   2.0000      -0.584114       -15.8946 
  10   2.0000      -0.570376       -15.5207 
  11   2.0000      -0.566499       -15.4152 
  12   2.0000      -0.507920       -13.8212 
  13   2.0000      -0.488626       -13.2962 
  14   2.0000      -0.462404       -12.5826 
  15   2.0000      -0.456179       -12.4133 
  16   2.0000      -0.445735       -12.1291 
  17   0.0000       0.259962         7.0739 
  18   0.0000       0.290873         7.9151 
  19   0.0000       0.296202         8.0601 
  20   0.0000       0.313487         8.5304 
  21   0.0000       0.339242         9.2312 
  22   0.0000       0.358899         9.7661 
  23   0.0000       0.361616         9.8401 
  24   0.0000       0.367945        10.0123 
  25   0.0000       0.374185        10.1821 
  26   0.0000       0.380568        10.3558 
  27   0.0000       0.449444        12.2300 
  28   0.0000       0.451036        12.2733 
  29   0.0000       0.452114        12.3026 
  30   0.0000       0.910838        24.7852 
  31   0.0000       0.918055        24.9815 
  32   0.0000       0.921825        25.0841 
  33   0.0000       0.962138        26.1811 
  34   0.0000       1.012636        27.5552 
  35   0.0000       1.036061        28.1927 
  36   0.0000       1.063612        28.9423 
  37   0.0000       1.102732        30.0069 
  38   0.0000       1.109002        30.1775 
  39   0.0000       1.183550        32.2060 
  40   0.0000       1.236861        33.6567 
  41   0.0000       1.243273        33.8312 
  42   0.0000       1.332479        36.2586 
  43   0.0000       1.349064        36.7099 
  44   0.0000       1.351920        36.7876 
  45   0.0000       1.373427        37.3728 
  46   0.0000       1.383532        37.6478 
  47   0.0000       1.404200        38.2102 
  48   0.0000       1.412283        38.4302 
  49   0.0000       1.435219        39.0543 
  50   0.0000       1.436856        39.0989 
  51   0.0000       1.586128        43.1607 
  52   0.0000       1.874827        51.0166 
  53   0.0000       2.176726        59.2317 
  54   0.0000       2.309312        62.8396 
  55   0.0000       2.586418        70.3800 

                    ********************************
                    * MULLIKEN POPULATION ANALYSIS *
                    ********************************

-----------------------
MULLIKEN ATOMIC CHARGES
-----------------------
   0 C :   -0.563646
   1 C :   -0.407034
   2 H :    0.191323
   3 H :    0.192361
   4 H :    0.191325
   5 C :   -0.407032
   6 H :    0.197824
   7 H :    0.197852
   8 C :   -0.563624
   9 H :    0.191330
  10 H :    0.192353
  11 H :    0.191288
  12 H :    0.197836
  13 H :    0.197843
Sum of atomic charges:   -0.0000000

--------------------------------
MULLIKEN REDUCED ORBITAL CHARGES
--------------------------------
  0 C s       :     3.461012  s :     3.461012
      pz      :     1.095125  p :     3.102634
      px      :     0.962452
      py      :     1.045056
  1 C s       :     3.448470  s :     3.448470
      pz      :     1.105884  p :     2.958564
      px      :     0.861200
      py      :     0.991480
  2 H s       :     0.808677  s :     0.808677
  3 H s       :     0.807639  s :     0.807639
  4 H s       :     0.808675  s :     0.808675
  5 C s       :     3.448465  s :     3.448465
      pz      :     1.105825  p :     2.958567
      px      :     0.861169
      py      :     0.991573
  6 H s       :     0.802176  s :     0.802176
  7 H s       :     0.802148  s :     0.802148
  8 C s       :     3.461013  s :     3.461013
      pz      :     1.095012  p :     3.102610
      px      :     0.962415
      py      :     1.045183
  9 H s       :     0.808670  s :     0.808670
 10 H s       :     0.807647  s :     0.807647
 11 H s       :     0.808712  s :     0.808712
 12 H s       :     0.802164  s :     0.802164
 13 H s       :     0.802157  s :     0.802157


                     *******************************
                     * LOEWDIN POPULATION ANALYSIS *
                     *******************************

----------------------
LOEWDIN ATOMIC CHARGES
----------------------
   0 C :   -0.253678
   1 C :   -0.160729
   2 H :    0.084536
   3 H :    0.084710
   4 H :    0.084531
   5 C :   -0.160736
   6 H :    0.080304
   7 H :    0.080336
   8 C :   -0.253676
   9 H :    0.084535
  10 H :    0.084709
  11 H :    0.084523
  12 H :    0.080331
  13 H :    0.080306

-------------------------------
LOEWDIN REDUCED ORBITAL CHARGES
-------------------------------
  0 C s       :     2.978196  s :     2.978196
      pz      :     1.109182  p :     3.275482
      px      :     1.070637
      py      :     1.095662
  1 C s       :     2.954686  s :     2.954686
      pz      :     1.098376  p :     3.206044
      px      :     1.033226
      py      :     1.074441
  2 H s       :     0.915464  s :     0.915464
  3 H s       :     0.915290  s :     0.915290
  4 H s       :     0.915469  s :     0.915469
  5 C s       :     2.954688  s :     2.954688
      pz      :     1.098380  p :     3.206049
      px      :     1.033215
      py      :     1.074454
  6 H s       :     0.919696  s :     0.919696
  7 H s       :     0.919664  s :     0.919664
  8 C s       :     2.978218  s :     2.978218
      pz      :     1.109142  p :     3.275458
      px      :     1.070621
      py      :     1.095695
  9 H s       :     0.915465  s :     0.915465
 10 H s       :     0.915291  s :     0.915291
 11 H s       :     0.915477  s :     0.915477
 12 H s       :     0.919669  s :     0.919669
 13 H s       :     0.919694  s :     0.919694


                      *****************************
                      * MAYER POPULATION ANALYSIS *
                      *****************************

  NA   - Mulliken gross atomic population
  ZA   - Total nuclear charge
  QA   - Mulliken gross atomic charge
  VA   - Mayer's total valence
  BVA  - Mayer's bonded valence
  FA   - Mayer's free valence

  ATOM       NA         ZA         QA         VA         BVA        FA
  0 C      6.5636     6.0000    -0.5636     3.6671     3.6671     0.0000
  1 C      6.4070     6.0000    -0.4070     3.5954     3.5954     0.0000
  2 H      0.8087     1.0000     0.1913     0.9224     0.9224     0.0000
  3 H      0.8076     1.0000     0.1924     0.9222     0.9222     0.0000
  4 H      0.8087     1.0000     0.1913     0.9223     0.9223    -0.0000
  5 C      6.4070     6.0000    -0.4070     3.5954     3.5954    -0.0000
  6 H      0.8022     1.0000     0.1978     0.9162     0.9162     0.0000
  7 H      0.8021     1.0000     0.1979     0.9161     0.9161    -0.0000
  8 C      6.5636     6.0000    -0.5636     3.6671     3.6671    -0.0000
  9 H      0.8087     1.0000     0.1913     0.9224     0.9224    -0.0000
 10 H      0.8076     1.0000     0.1924     0.9222     0.9222    -0.0000
 11 H      0.8087     1.0000     0.1913     0.9224     0.9224     0.0000
 12 H      0.8022     1.0000     0.1978     0.9161     0.9161     0.0000
 13 H      0.8022     1.0000     0.1978     0.9161     0.9161    -0.0000

  Mayer bond orders larger than 0.1
B(  0-C ,  1-C ) :   0.9119 B(  0-C ,  2-H ) :   0.9305 B(  0-C ,  3-H ) :   0.9343 
B(  0-C ,  4-H ) :   0.9305 B(  1-C ,  5-C ) :   0.8957 B(  1-C ,  6-H ) :   0.9258 
B(  1-C ,  7-H ) :   0.9258 B(  5-C ,  8-C ) :   0.9119 B(  5-C , 12-H ) :   0.9258 
B(  5-C , 13-H ) :   0.9258 B(  8-C ,  9-H ) :   0.9305 B(  8-C , 10-H ) :   0.9343 
B(  8-C , 11-H ) :   0.9305 

-------
TIMINGS
-------

Total SCF time: 0 days 0 hours 0 min 2 sec 

Total time                  ....       2.537 sec
Sum of individual times     ....       3.001 sec  (118.3%)

Fock matrix formation       ....       2.519 sec  ( 99.3%)
Diagonalization             ....       0.006 sec  (  0.2%)
Density matrix formation    ....       0.000 sec  (  0.0%)
Population analysis         ....       0.002 sec  (  0.1%)
Initial guess               ....       0.334 sec  ( 13.2%)
Orbital Transformation      ....       0.000 sec  (  0.0%)
Orbital Orthonormalization  ....       0.000 sec  (  0.0%)
DIIS solution               ....       0.001 sec  (  0.0%)
SOSCF solution              ....       0.003 sec  (  0.1%)

-------------------------   --------------------
FINAL SINGLE POINT ENERGY      -156.427054155315
-------------------------   --------------------

------------------------------------------------------------------------------
                         ORCA SCF GRADIENT CALCULATION
------------------------------------------------------------------------------

Gradient of the Hartree-Fock SCF energy:
Hartree-Fock type                ... RHF
Number of operators              ...    1
Number of atoms                  ...   14
Basis set dimensions             ...   56
Integral neglect threshold       ... 2.5e-11
Integral primitive cutoff        ... 2.5e-12

Nuclear repulsion gradient       ... done
One Electron Gradient            ... done
Pre-screening matrix             ... done
Starting the two electron gradient:
Two electron gradient done

------------------
CARTESIAN GRADIENT
------------------

   1   C   :    0.019561197    0.005798579    0.000077643
   2   C   :    0.000524936   -0.013334139   -0.001464688
   3   H   :    0.000580762   -0.007185286   -0.016188670
   4   H   :   -0.010445200    0.013822547    0.001739861
   5   H   :    0.001363581   -0.010353575    0.014351185
   6   C   :   -0.000555609    0.013335209    0.001508167
   7   H   :   -0.001495968    0.006024942    0.016548160
   8   H   :   -0.002183660    0.009373899   -0.014800843
   9   C   :   -0.019570966   -0.005801548   -0.000306415
  10   H   :   -0.001312097    0.010488367   -0.014211941
  11   H   :    0.010466559   -0.013822452   -0.001772603
  12   H   :   -0.000627211    0.007043587    0.016344433
  13   H   :    0.001440073   -0.005973252   -0.016571424
  14   H   :    0.002253603   -0.009416876    0.014747136

Norm of the cartesian gradient     ...    0.065636921
RMS gradient                       ...    0.010127997
MAX gradient                       ...    0.019570966

-------
TIMINGS
-------

Total SCF gradient time            ...        0.622 sec

One electron gradient       ....       0.027 sec  (  4.3%)
Prescreening matrices       ....       0.003 sec  (  0.5%)
Two electron gradient       ....       0.488 sec  ( 78.4%)
------------------------------------------------------------------------------
                         ORCA GEOMETRY RELAXATION STEP
------------------------------------------------------------------------------

Reading the OPT-File                    .... done
Getting information on internals        .... done
Copying old internal coords+grads       .... done
Making the new internal coordinates     .... (new redundants).... done
Validating the new internal coordinates .... (new redundants).... done
Calculating the B-matrix                .... done
Calculating the G,G- and P matrices     .... done
Transforming gradient to internals      .... done
Projecting the internal gradient        .... done
Number of atoms                         ....  14
Number of internal coordinates          ....  64
Current Energy                          ....  -156.427054155 Eh
Current gradient norm                   ....     0.065636921 Eh/bohr
Maximum allowed component of the step   ....  0.300
Current trust radius                    ....  0.300
Evaluating the initial hessian          ....  (Almloef) done
Projecting the Hessian                  .... done
Forming the augmented Hessian           .... done
Diagonalizing the augmented Hessian     .... done
Last element of RFO vector              ....  0.983194745
Lowest eigenvalues of augmented Hessian:
 -0.010594584  0.010939354  0.011458760  0.011460210  0.078176542
Length of the computed step             ....  0.185680239
The final length of the internal step   ....  0.185680239
Converting the step to cartesian space:
 Initial RMS(Int)=    0.0232100299
Transforming coordinates:
 Iter   0:  RMS(Cart)=    0.0361954724 RMS(Int)=    0.0232514387
 Iter   1:  RMS(Cart)=    0.0003363826 RMS(Int)=    0.0002123763
 Iter   2:  RMS(Cart)=    0.0000086156 RMS(Int)=    0.0000063595
 Iter   3:  RMS(Cart)=    0.0000002762 RMS(Int)=    0.0000001824
 Iter   4:  RMS(Cart)=    0.0000000082 RMS(Int)=    0.0000000053
done
Storing new coordinates                 .... done

                                .--------------------.
          ----------------------|Geometry convergence|---------------------
          Item                value                 Tolerance   Converged
          -----------------------------------------------------------------
          RMS gradient        0.00741453            0.00010000      NO
          MAX gradient        0.01763226            0.00030000      NO
          RMS step            0.02321003            0.00200000      NO
          MAX step            0.05125951            0.00400000      NO
          ....................................................
          Max(Bonds)      0.0271      Max(Angles)    1.27
          Max(Dihed)        1.84      Max(Improp)    0.00
          -----------------------------------------------------------------

The optimization has not yet converged - more geometry cycles are needed


    ---------------------------------------------------------------------------
                         Redundant Internal Coordinates
                            (Angstroem and degrees)

        Definition                    Value    dE/dq     Step     New-Value
    ----------------------------------------------------------------------------
     1. B(C   1,C   0)                1.5260 -0.010467  0.0142    1.5402   
     2. B(H   2,C   0)                1.1108  0.017552 -0.0270    1.0838   
     3. B(H   3,C   0)                1.1103  0.016830 -0.0258    1.0845   
     4. B(H   4,C   0)                1.1109  0.017572 -0.0270    1.0839   
     5. B(C   5,C   1)                1.5327 -0.003858  0.0054    1.5380   
     6. B(H   6,C   1)                1.1119  0.017304 -0.0267    1.0852   
     7. B(H   7,C   1)                1.1119  0.017296 -0.0267    1.0852   
     8. B(C   8,C   5)                1.5260 -0.010457  0.0142    1.5402   
     9. B(H   9,C   8)                1.1108  0.017542 -0.0270    1.0838   
    10. B(H  10,C   8)                1.1104  0.016849 -0.0259    1.0845   
    11. B(H  11,C   8)                1.1110  0.017632 -0.0271    1.0839   
    12. B(H  12,C   5)                1.1119  0.017315 -0.0267    1.0852   
    13. B(H  13,C   5)                1.1119  0.017271 -0.0267    1.0852   
    14. A(H   3,C   0,H   4)          108.66  0.003420   -0.50    108.16   
    15. A(C   1,C   0,H   3)          109.59 -0.005885    1.16    110.74   
    16. A(H   2,C   0,H   3)          108.68  0.003424   -0.51    108.17   
    17. A(C   1,C   0,H   4)          110.31 -0.001851    0.30    110.61   
    18. A(C   1,C   0,H   2)          110.36 -0.001754    0.28    110.64   
    19. A(H   2,C   0,H   4)          109.20  0.002834   -0.75    108.45   
    20. A(C   0,C   1,C   5)          111.14 -0.005684    1.27    112.41   
    21. A(C   0,C   1,H   7)          108.86  0.000168    0.31    109.16   
    22. A(H   6,C   1,H   7)          108.73  0.000726   -1.02    107.71   
    23. A(C   5,C   1,H   6)          109.66  0.002458   -0.48    109.19   
    24. A(C   0,C   1,H   6)          108.79  0.000050    0.34    109.13   
    25. A(C   5,C   1,H   7)          109.62  0.002369   -0.46    109.16   
    26. A(C   1,C   5,C   8)          111.14 -0.005680    1.27    112.41   
    27. A(H  12,C   5,H  13)          108.73  0.000724   -1.01    107.71   
    28. A(C   1,C   5,H  13)          109.67  0.002460   -0.48    109.19   
    29. A(C   8,C   5,H  12)          108.85  0.000162    0.31    109.16   
    30. A(C   1,C   5,H  12)          109.63  0.002373   -0.46    109.16   
    31. A(C   8,C   5,H  13)          108.79  0.000047    0.34    109.13   
    32. A(C   5,C   8,H  10)          109.59 -0.005869    1.16    110.75   
    33. A(C   5,C   8,H   9)          110.36 -0.001757    0.28    110.64   
    34. A(H  10,C   8,H  11)          108.66  0.003416   -0.50    108.16   
    35. A(H   9,C   8,H  11)          109.20  0.002838   -0.75    108.45   
    36. A(C   5,C   8,H  11)          110.31 -0.001858    0.30    110.61   
    37. A(H   9,C   8,H  10)          108.68  0.003419   -0.51    108.17   
    38. D(H   6,C   1,C   0,H   4)    -60.35  0.001101   -0.72    -61.06   
    39. D(H   7,C   1,C   0,H   3)    -59.09 -0.000520    0.42    -58.66   
    40. D(C   5,C   1,C   0,H   3)   -179.92 -0.000001   -0.00   -179.92   
    41. D(H   7,C   1,C   0,H   2)     60.57 -0.001089    0.69     61.26   
    42. D(C   5,C   1,C   0,H   2)    -60.26 -0.000571    0.27    -60.00   
    43. D(H   6,C   1,C   0,H   3)     59.25  0.000477   -0.43     58.82   
    44. D(H   7,C   1,C   0,H   4)   -178.68  0.000104    0.13   -178.55   
    45. D(H   6,C   1,C   0,H   2)    178.90 -0.000092   -0.16    178.74   
    46. D(C   5,C   1,C   0,H   4)     60.49  0.000622   -0.29     60.20   
    47. D(H  12,C   5,C   1,H   6)   -179.76 -0.000015   -0.03   -179.79   
    48. D(C   8,C   5,C   1,H   7)     59.92  0.001944   -0.95     58.97   
    49. D(C   8,C   5,C   1,H   6)    -59.38 -0.001888    0.87    -58.52   
    50. D(C   8,C   5,C   1,C   0)   -179.70  0.000074   -0.06   -179.76   
    51. D(H  12,C   5,C   1,H   7)    -60.46  0.003817   -1.84    -62.30   
    52. D(H  13,C   5,C   1,H   7)   -179.76 -0.000018   -0.03   -179.79   
    53. D(H  13,C   5,C   1,H   6)     60.94 -0.003849    1.79     62.73   
    54. D(H  13,C   5,C   1,C   0)    -59.38 -0.001888    0.87    -58.52   
    55. D(H  12,C   5,C   1,C   0)     59.92  0.001946   -0.95     58.97   
    56. D(H  11,C   8,C   5,H  12)   -178.67  0.000107    0.13   -178.54   
    57. D(H  11,C   8,C   5,C   1)     60.49  0.000621   -0.29     60.20   
    58. D(H  10,C   8,C   5,H  13)     59.24  0.000474   -0.43     58.82   
    59. D(H  10,C   8,C   5,H  12)    -59.08 -0.000515    0.42    -58.66   
    60. D(H  10,C   8,C   5,C   1)   -179.92 -0.000002   -0.00   -179.92   
    61. D(H   9,C   8,C   5,H  13)    178.90 -0.000094   -0.16    178.74   
    62. D(H   9,C   8,C   5,H  12)     60.57 -0.001083    0.69     61.26   
    63. D(H  11,C   8,C   5,H  13)    -60.35  0.001096   -0.72    -61.06   
    64. D(H   9,C   8,C   5,C   1)    -60.26 -0.000570    0.27    -59.99   
    ----------------------------------------------------------------------------

         *************************************************************
         *                GEOMETRY OPTIMIZATION CYCLE   2            *
         *************************************************************
---------------------------------
CARTESIAN COORDINATES (ANGSTROEM)
---------------------------------
  C     -8.579502    1.286781    0.013102
  C     -7.268541    2.093423    0.066484
  H     -8.660795    0.751534   -0.925842
  H     -9.438158    1.943052    0.103610
  H     -8.617773    0.567052    0.822588
  C     -6.024110    1.198569   -0.060804
  H     -7.222834    2.636109    1.005169
  H     -7.266145    2.822920   -0.736959
  C     -4.713007    2.004579   -0.001534
  H     -4.673575    2.729692   -0.806126
  H     -3.854399    1.348682   -0.095112
  H     -4.632700    2.533518    0.941080
  H     -6.068320    0.658949   -1.001312
  H     -6.028040    0.466440    0.740256

----------------------------
CARTESIAN COORDINATES (A.U.)
----------------------------
  NO LB      ZA    FRAG    MASS        X           Y           Z
   0 C     6.0000    0    12.011        -16.212909278903130          2.431663816479658          0.024758267668997
   1 C     6.0000    0    12.011        -13.735552188657421          3.955996719553218          0.125637238606017
   2 H     1.0000    0     1.008        -16.366530709029181          1.420192555919864         -1.749587448604901
   3 H     1.0000    0     1.008        -17.835533260833216          3.671836527755753          0.195793640262999
   4 H     1.0000    0     1.008        -16.285231113687580          1.071572445722723          1.554466331716807
   5 C     6.0000    0    12.011        -11.383918219553168          2.264967374398405         -0.114903191506114
   6 H     1.0000    0     1.008        -13.649178060800411          4.981523515820704          1.899495060973075
   7 H     1.0000    0     1.008        -13.731023831808921          5.334545907121001         -1.392651025898854
   8 C     6.0000    0    12.011         -8.906292441444357          3.788105883555160         -0.002899269314296
   9 H     1.0000    0     1.008         -8.831777737079225          5.158370514937909         -1.523356848821233
  10 H     1.0000    0     1.008         -7.283758413294755          2.548639803063461         -0.179734818017904
  11 H     1.0000    0     1.008         -8.754534652147685          4.787655411752665          1.778382536694611
  12 H     1.0000    0     1.008        -11.467463691088021          1.245232381736973         -1.892205744588200
  13 H     1.0000    0     1.008        -11.391344738164157          0.881443911702242          1.398881579080310

--------------------------------
INTERNAL COORDINATES (ANGSTROEM)
--------------------------------
 C      0   0   0   0.000000     0.000     0.000
 C      1   0   0   1.540175     0.000     0.000
 H      1   2   0   1.083842   110.641     0.000
 H      1   2   3   1.084515   110.738   240.077
 H      1   2   3   1.083856   110.607   120.191
 C      2   1   3   1.538043   112.402   300.006
 H      2   1   3   1.085231   109.131   178.740
 H      2   1   3   1.085216   109.164    61.265
 C      6   2   1   1.540181   112.402   180.238
 H      9   6   2   1.083841   110.641   300.009
 H      9   6   2   1.084512   110.740   180.084
 H      9   6   2   1.083857   110.605    60.200
 H      6   2   1   1.085219   109.151    58.973
 H      6   2   1   1.085231   109.177   301.481

---------------------------
INTERNAL COORDINATES (A.U.)
---------------------------
 C      0   0   0   0.000000     0.000     0.000
 C      1   0   0   2.910509     0.000     0.000
 H      1   2   0   2.048164   110.641     0.000
 H      1   2   3   2.049437   110.738   240.077
 H      1   2   3   2.048191   110.607   120.191
 C      2   1   3   2.906479   112.402   300.006
 H      2   1   3   2.050789   109.131   178.740
 H      2   1   3   2.050760   109.164    61.265
 C      6   2   1   2.910520   112.402   180.238
 H      9   6   2   2.048162   110.641   300.009
 H      9   6   2   2.049430   110.740   180.084
 H      9   6   2   2.048193   110.605    60.200
 H      6   2   1   2.050767   109.151    58.973
 H      6   2   1   2.050789   109.177   301.481


Diagonalization of the overlap matrix:
Smallest eigenvalue                        ... 1.210e-02
Time for diagonalization                   ...    0.002 sec
Threshold for overlap eigenvalues          ... 1.000e-08
Number of eigenvalues below threshold      ... 0
Time for construction of square roots      ...    0.001 sec
Total time needed                          ...    0.003 sec

--------------
SCF ITERATIONS
--------------
ITER       Energy         Delta-E        Max-DP      RMS-DP      [F,P]     Damp
               ***  Starting incremental Fock matrix formation  ***
  0   -156.4306721512   0.000000000000 0.00365798  0.00032248  0.0123947 0.7000
                      *** Initiating the SOSCF procedure ***
                      *** Re-Reading the Fockian *** 
                      *** Removing any level shift *** 
ITER      Energy       Delta-E        Grad      Rot      Max-DP    RMS-DP
  1   -156.43114924  -0.0004770908  0.001442  0.001442  0.009252  0.000904
               *** Restarting incremental Fock matrix formation ***
  2   -156.43235690  -0.0012076584  0.001626  0.001111  0.001731  0.000218
  3   -156.43241007  -0.0000531672  0.000505  0.000745  0.000569  0.000075
  4   -156.43241490  -0.0000048317  0.000052  0.000074  0.000118  0.000011
  5   -156.43241497  -0.0000000744  0.000018  0.000038  0.000035  0.000005
                  ***Gradient check signals convergence***
              ***Rediagonalizing the Fockian in SOSCF/NRSCF***

               *****************************************************
               *                     SUCCESS                       *
               *           SCF CONVERGED AFTER   6 CYCLES          *
               *****************************************************

Total Energy       :         -156.43241498 Eh           -4256.74242 eV
  Last Energy change         ...   -5.9133e-09  Tolerance :   1.0000e-08
  Last MAX-Density change    ...    7.8294e-06  Tolerance :   1.0000e-07
             **** THE GBW FILE WAS UPDATED (tmp/butane.gbw) ****
             **** DENSITY FILE WAS UPDATED (tmp/butane.scfp.tmp) ****
             **** ENERGY FILE WAS UPDATED (tmp/butane.en.tmp) ****
Total SCF time: 0 days 0 hours 0 min 1 sec 

-------------------------   --------------------
FINAL SINGLE POINT ENERGY      -156.432414979601
-------------------------   --------------------

------------------------------------------------------------------------------
                         ORCA SCF GRADIENT CALCULATION
------------------------------------------------------------------------------

Gradient of the Hartree-Fock SCF energy:
Hartree-Fock type                ... RHF
Number of operators              ...    1
Number of atoms                  ...   14
Basis set dimensions             ...   56
Integral neglect threshold       ... 2.5e-11
Integral primitive cutoff        ... 2.5e-12

Nuclear repulsion gradient       ... done
One Electron Gradient            ... done
Pre-screening matrix             ... done
Starting the two electron gradient:
Two electron gradient done

------------------
CARTESIAN GRADIENT
------------------

   1   C   :    0.000128249   -0.000948006   -0.000124961
   2   C   :    0.000766980    0.000000866   -0.000037412
   3   H   :    0.000032702    0.000719006    0.000417434
   4   H   :    0.000323624    0.000271017    0.000033839
   5   H   :    0.000029310    0.000814539   -0.000230508
   6   C   :   -0.000779246    0.000009882    0.000009610
   7   H   :   -0.000515524   -0.001048932    0.000178798
   8   H   :   -0.000489991   -0.001001259   -0.000375030
   9   C   :   -0.000125793    0.000946471    0.000079910
  10   H   :   -0.000016346   -0.000791731    0.000255174
  11   H   :   -0.000321895   -0.000269183   -0.000007620
  12   H   :   -0.000044940   -0.000747800   -0.000398170
  13   H   :    0.000481019    0.001059301   -0.000174348
  14   H   :    0.000531853    0.000985829    0.000373284

Norm of the cartesian gradient     ...    0.003432533
RMS gradient                       ...    0.000529651
MAX gradient                       ...    0.001059301

-------
TIMINGS
-------

Total SCF gradient time            ...        0.616 sec

One electron gradient       ....       0.026 sec  (  4.2%)
Prescreening matrices       ....       0.003 sec  (  0.4%)
Two electron gradient       ....       0.480 sec  ( 77.9%)
------------------------------------------------------------------------------
                         ORCA GEOMETRY RELAXATION STEP
------------------------------------------------------------------------------

Reading the OPT-File                    .... done
Getting information on internals        .... done
Copying old internal coords+grads       .... done
Making the new internal coordinates     .... (new redundants).... done
Validating the new internal coordinates .... (new redundants).... done
Calculating the B-matrix                .... done
Calculating the G,G- and P matrices     .... done
Transforming gradient to internals      .... done
Projecting the internal gradient        .... done
Number of atoms                         ....  14
Number of internal coordinates          ....  64
Current Energy                          ....  -156.432414980 Eh
Current gradient norm                   ....     0.003432533 Eh/bohr
Maximum allowed component of the step   ....  0.300
Current trust radius                    ....  0.300
Updating the Hessian (BFGS)             .... done
Forming the augmented Hessian           .... done
Diagonalizing the augmented Hessian     .... done
Last element of RFO vector              ....  0.999828802
Lowest eigenvalues of augmented Hessian:
 -0.000061755  0.010939324  0.011458757  0.011460208  0.078176510
Length of the computed step             ....  0.018506332
The final length of the internal step   ....  0.018506332
Converting the step to cartesian space:
 Initial RMS(Int)=    0.0023132915
Transforming coordinates:
 Iter   0:  RMS(Cart)=    0.0038368181 RMS(Int)=    0.0023138163
 Iter   1:  RMS(Cart)=    0.0000071679 RMS(Int)=    0.0000046185
 Iter   2:  RMS(Cart)=    0.0000000209 RMS(Int)=    0.0000000159
done
Storing new coordinates                 .... done

                                .--------------------.
          ----------------------|Geometry convergence|---------------------
          Item                value                 Tolerance   Converged
          -----------------------------------------------------------------
          Energy change      -0.00536082            0.00000500      NO
          RMS gradient        0.00050311            0.00010000      NO
          MAX gradient        0.00142273            0.00030000      NO
          RMS step            0.00231329            0.00200000      NO
          MAX step            0.00656341            0.00400000      NO
          ....................................................
          Max(Bonds)      0.0013      Max(Angles)    0.28
          Max(Dihed)        0.38      Max(Improp)    0.00
          -----------------------------------------------------------------

The optimization has not yet converged - more geometry cycles are needed


    ---------------------------------------------------------------------------
                         Redundant Internal Coordinates
                            (Angstroem and degrees)

        Definition                    Value    dE/dq     Step     New-Value
    ----------------------------------------------------------------------------
     1. B(C   1,C   0)                1.5402 -0.000889  0.0013    1.5415   
     2. B(H   2,C   0)                1.0838 -0.000719  0.0010    1.0848   
     3. B(H   3,C   0)                1.0845 -0.000089  0.0000    1.0845   
     4. B(H   4,C   0)                1.0839 -0.000714  0.0010    1.0848   
     5. B(C   5,C   1)                1.5380 -0.000928  0.0013    1.5394   
     6. B(H   6,C   1)                1.0852 -0.000392  0.0005    1.0857   
     7. B(H   7,C   1)                1.0852 -0.000396  0.0005    1.0857   
     8. B(C   8,C   5)                1.5402 -0.000887  0.0013    1.5415   
     9. B(H   9,C   8)                1.0838 -0.000720  0.0010    1.0848   
    10. B(H  10,C   8)                1.0845 -0.000091  0.0000    1.0845   
    11. B(H  11,C   8)                1.0839 -0.000715  0.0010    1.0848   
    12. B(H  12,C   5)                1.0852 -0.000395  0.0005    1.0857   
    13. B(H  13,C   5)                1.0852 -0.000391  0.0005    1.0857   
    14. A(H   3,C   0,H   4)          108.15  0.000208    0.01    108.16   
    15. A(C   1,C   0,H   3)          110.74 -0.000632    0.16    110.90   
    16. A(H   2,C   0,H   3)          108.16  0.000207    0.00    108.17   
    17. A(C   1,C   0,H   4)          110.61 -0.000104    0.00    110.61   
    18. A(C   1,C   0,H   2)          110.64 -0.000046   -0.01    110.63   
    19. A(H   2,C   0,H   4)          108.45  0.000398   -0.17    108.28   
    20. A(C   0,C   1,C   5)          112.40  0.001423   -0.17    112.24   
    21. A(C   0,C   1,H   7)          109.16 -0.000793    0.20    109.36   
    22. A(H   6,C   1,H   7)          107.71  0.000758   -0.28    107.43   
    23. A(C   5,C   1,H   6)          109.17 -0.000253    0.01    109.18   
    24. A(C   0,C   1,H   6)          109.13 -0.000851    0.22    109.35   
    25. A(C   5,C   1,H   7)          109.15 -0.000301    0.02    109.17   
    26. A(C   1,C   5,C   8)          112.40  0.001422   -0.17    112.23   
    27. A(H  12,C   5,H  13)          107.70  0.000756   -0.28    107.43   
    28. A(C   1,C   5,H  13)          109.18 -0.000250    0.01    109.19   
    29. A(C   8,C   5,H  12)          109.16 -0.000795    0.20    109.36   
    30. A(C   1,C   5,H  12)          109.15 -0.000298    0.02    109.17   
    31. A(C   8,C   5,H  13)          109.13 -0.000852    0.22    109.35   
    32. A(C   5,C   8,H  10)          110.74 -0.000625    0.16    110.90   
    33. A(C   5,C   8,H   9)          110.64 -0.000045   -0.01    110.63   
    34. A(H  10,C   8,H  11)          108.15  0.000206    0.01    108.16   
    35. A(H   9,C   8,H  11)          108.45  0.000399   -0.17    108.28   
    36. A(C   5,C   8,H  11)          110.61 -0.000108    0.01    110.61   
    37. A(H   9,C   8,H  10)          108.17  0.000205    0.00    108.17   
    38. D(H   6,C   1,C   0,H   4)    -61.07  0.000192   -0.17    -61.24   
    39. D(H   7,C   1,C   0,H   3)    -58.66  0.000002    0.04    -58.62   
    40. D(C   5,C   1,C   0,H   3)   -179.92 -0.000002   -0.01   -179.93   
    41. D(H   7,C   1,C   0,H   2)     61.27 -0.000180    0.14     61.40   
    42. D(C   5,C   1,C   0,H   2)    -59.99 -0.000185    0.09    -59.90   
    43. D(H   6,C   1,C   0,H   3)     58.82 -0.000026   -0.06     58.76   
    44. D(H   7,C   1,C   0,H   4)   -178.54  0.000221   -0.08   -178.62   
    45. D(H   6,C   1,C   0,H   2)    178.74 -0.000209    0.04    178.78   
    46. D(C   5,C   1,C   0,H   4)     60.20  0.000216   -0.12     60.07   
    47. D(H  12,C   5,C   1,H   6)   -179.79 -0.000001   -0.05   -179.84   
    48. D(C   8,C   5,C   1,H   7)     58.97  0.000314   -0.22     58.75   
    49. D(C   8,C   5,C   1,H   6)    -58.52 -0.000281    0.10    -58.42   
    50. D(C   8,C   5,C   1,C   0)   -179.76  0.000037   -0.07   -179.83   
    51. D(H  12,C   5,C   1,H   7)    -62.29  0.000594   -0.38    -62.67   
    52. D(H  13,C   5,C   1,H   7)   -179.79 -0.000003   -0.05   -179.84   
    53. D(H  13,C   5,C   1,H   6)     62.72 -0.000598    0.27     62.99   
    54. D(H  13,C   5,C   1,C   0)    -58.52 -0.000280    0.10    -58.42   
    55. D(H  12,C   5,C   1,C   0)     58.97  0.000316   -0.22     58.75   
    56. D(H  11,C   8,C   5,H  12)   -178.54  0.000222   -0.08   -178.62   
    57. D(H  11,C   8,C   5,C   1)     60.20  0.000217   -0.13     60.07   
    58. D(H  10,C   8,C   5,H  13)     58.81 -0.000029   -0.06     58.76   
    59. D(H  10,C   8,C   5,H  12)    -58.66  0.000003    0.04    -58.62   
    60. D(H  10,C   8,C   5,C   1)   -179.92 -0.000003   -0.01   -179.93   
    61. D(H   9,C   8,C   5,H  13)    178.74 -0.000210    0.04    178.78   
    62. D(H   9,C   8,C   5,H  12)     61.27 -0.000178    0.14     61.40   
    63. D(H  11,C   8,C   5,H  13)    -61.07  0.000190   -0.17    -61.24   
    64. D(H   9,C   8,C   5,C   1)    -59.99 -0.000183    0.09    -59.90   
    ----------------------------------------------------------------------------

         *************************************************************
         *                GEOMETRY OPTIMIZATION CYCLE   3            *
         *************************************************************
---------------------------------
CARTESIAN COORDINATES (ANGSTROEM)
---------------------------------
  C     -8.579654    1.287354    0.012859
  C     -7.267975    2.095257    0.067193
  H     -8.659507    0.750871   -0.926645
  H     -9.440497    1.940768    0.103304
  H     -8.617023    0.565028    0.821387
  C     -6.024645    1.196625   -0.060486
  H     -7.219638    2.639986    1.005114
  H     -7.262576    2.827265   -0.734605
  C     -4.712867    2.004074   -0.001897
  H     -4.674887    2.730499   -0.806708
  H     -3.852074    1.350971   -0.095030
  H     -4.633487    2.535756    0.940381
  H     -6.071809    0.654188   -0.999787
  H     -6.031262    0.462657    0.739520

----------------------------
CARTESIAN COORDINATES (A.U.)
----------------------------
  NO LB      ZA    FRAG    MASS        X           Y           Z
   0 C     6.0000    0    12.011        -16.213196137427538          2.432745575508770          0.024299130222302
   1 C     6.0000    0    12.011        -13.734482736354115          3.959461660861205          0.126976593299343
   2 H     1.0000    0     1.008        -16.364096478465143          1.418941188756968         -1.751105268123052
   3 H     1.0000    0     1.008        -17.839953447330394          3.667520420678996          0.195217133903299
   4 H     1.0000    0     1.008        -16.283813507286105          1.067747507203782          1.552197119635128
   5 C     6.0000    0    12.011        -11.384928894768578          2.261293495704726         -0.114302689165099
   6 H     1.0000    0     1.008        -13.643138439002062          4.988851319284128          1.899390362613382
   7 H     1.0000    0     1.008        -13.724279551923258          5.342756225238862         -1.388203189661894
   8 C     6.0000    0    12.011         -8.906027718039672          3.787151602614187         -0.003583972882787
   9 H     1.0000    0     1.008         -8.834256354075144          5.159895334956714         -1.524456701793165
  10 H     1.0000    0     1.008         -7.279365685181907          2.552966076057355         -0.179579751701778
  11 H     1.0000    0     1.008         -8.756020877572674          4.791884577619625          1.777062545338654
  12 H     1.0000    0     1.008        -11.474055312114865          1.236236621406206         -1.889324542256936
  13 H     1.0000    0     1.008        -11.397433196949775          0.874295163628214          1.397489538823915

--------------------------------
INTERNAL COORDINATES (ANGSTROEM)
--------------------------------
 C      0   0   0   0.000000     0.000     0.000
 C      1   0   0   1.541480     0.000     0.000
 H      1   2   0   1.084830   110.631     0.000
 H      1   2   3   1.084519   110.898   239.978
 H      1   2   3   1.084836   110.610   119.977
 C      2   1   3   1.539387   112.234   300.096
 H      2   1   3   1.085708   109.347   178.780
 H      2   1   3   1.085701   109.364    61.403
 C      6   2   1   1.541483   112.234   180.172
 H      9   6   2   1.084830   110.631   300.097
 H      9   6   2   1.084519   110.899   180.075
 H      9   6   2   1.084838   110.610    60.073
 H      6   2   1   1.085702   109.167    58.752
 H      6   2   1   1.085708   109.184   301.583

---------------------------
INTERNAL COORDINATES (A.U.)
---------------------------
 C      0   0   0   0.000000     0.000     0.000
 C      1   0   0   2.912975     0.000     0.000
 H      1   2   0   2.050032   110.631     0.000
 H      1   2   3   2.049444   110.898   239.978
 H      1   2   3   2.050044   110.610   119.977
 C      2   1   3   2.909019   112.234   300.096
 H      2   1   3   2.051691   109.347   178.780
 H      2   1   3   2.051677   109.364    61.403
 C      6   2   1   2.912980   112.234   180.172
 H      9   6   2   2.050032   110.631   300.097
 H      9   6   2   2.049443   110.899   180.075
 H      9   6   2   2.050047   110.610    60.073
 H      6   2   1   2.051679   109.167    58.752
 H      6   2   1   2.051691   109.184   301.583


Diagonalization of the overlap matrix:
Smallest eigenvalue                        ... 1.217e-02
Time for diagonalization                   ...    0.001 sec
Threshold for overlap eigenvalues          ... 1.000e-08
Number of eigenvalues below threshold      ... 0
Time for construction of square roots      ...    0.000 sec
Total time needed                          ...    0.001 sec

--------------
SCF ITERATIONS
--------------
ITER       Energy         Delta-E        Max-DP      RMS-DP      [F,P]     Damp
               ***  Starting incremental Fock matrix formation  ***
                      *** Initiating the SOSCF procedure ***
                      *** Re-Reading the Fockian *** 
                      *** Removing any level shift *** 
ITER      Energy       Delta-E        Grad      Rot      Max-DP    RMS-DP
  0   -156.43244828 -156.4324482844  0.000479  0.000479  0.000742  0.000072
               *** Restarting incremental Fock matrix formation ***
  1   -156.43245541  -0.0000071303  0.000192  0.000172  0.000195  0.000030
  2   -156.43245651  -0.0000010938  0.000068  0.000113  0.000134  0.000016
  3   -156.43245664  -0.0000001284  0.000012  0.000011  0.000027  0.000002
  4   -156.43245664  -0.0000000033  0.000004  0.000002  0.000007  0.000000
                  ***Gradient check signals convergence***
              ***Rediagonalizing the Fockian in SOSCF/NRSCF***

               *****************************************************
               *                     SUCCESS                       *
               *           SCF CONVERGED AFTER   5 CYCLES          *
               *****************************************************

Total Energy       :         -156.43245664 Eh           -4256.74355 eV
  Last Energy change         ...    2.1538e-10  Tolerance :   1.0000e-08
  Last MAX-Density change    ...    1.7544e-06  Tolerance :   1.0000e-07
             **** THE GBW FILE WAS UPDATED (tmp/butane.gbw) ****
             **** DENSITY FILE WAS UPDATED (tmp/butane.scfp.tmp) ****
             **** ENERGY FILE WAS UPDATED (tmp/butane.en.tmp) ****
Total SCF time: 0 days 0 hours 0 min 1 sec 

-------------------------   --------------------
FINAL SINGLE POINT ENERGY      -156.432456639976
-------------------------   --------------------

------------------------------------------------------------------------------
                         ORCA SCF GRADIENT CALCULATION
------------------------------------------------------------------------------

Gradient of the Hartree-Fock SCF energy:
Hartree-Fock type                ... RHF
Number of operators              ...    1
Number of atoms                  ...   14
Basis set dimensions             ...   56
Integral neglect threshold       ... 2.5e-11
Integral primitive cutoff        ... 2.5e-12

Nuclear repulsion gradient       ... done
One Electron Gradient            ... done
Pre-screening matrix             ... done
Starting the two electron gradient:
Two electron gradient done

------------------
CARTESIAN GRADIENT
------------------

   1   C   :   -0.000147765   -0.000496443   -0.000062221
   2   C   :    0.000673888    0.000288069    0.000009717
   3   H   :   -0.000087488    0.000163014   -0.000033328
   4   H   :    0.000161263    0.000163454    0.000017690
   5   H   :   -0.000075078    0.000167276    0.000089020
   6   C   :   -0.000678967   -0.000284109   -0.000016886
   7   H   :   -0.000223395   -0.000368779    0.000164136
   8   H   :   -0.000217317   -0.000336686   -0.000233294
   9   C   :    0.000147894    0.000496768    0.000035339
  10   H   :    0.000084896   -0.000151147   -0.000071362
  11   H   :   -0.000160140   -0.000162941   -0.000009230
  12   H   :    0.000078389   -0.000182332    0.000048232
  13   H   :    0.000209547    0.000379065   -0.000165477
  14   H   :    0.000234274    0.000324791    0.000227664

Norm of the cartesian gradient     ...    0.001653893
RMS gradient                       ...    0.000255201
MAX gradient                       ...    0.000678967

-------
TIMINGS
-------

Total SCF gradient time            ...        0.622 sec

One electron gradient       ....       0.027 sec  (  4.3%)
Prescreening matrices       ....       0.003 sec  (  0.4%)
Two electron gradient       ....       0.486 sec  ( 78.2%)
------------------------------------------------------------------------------
                         ORCA GEOMETRY RELAXATION STEP
------------------------------------------------------------------------------

Reading the OPT-File                    .... done
Getting information on internals        .... done
Copying old internal coords+grads       .... done
Making the new internal coordinates     .... (new redundants).... done
Validating the new internal coordinates .... (new redundants).... done
Calculating the B-matrix                .... done
Calculating the G,G- and P matrices     .... done
Transforming gradient to internals      .... done
Projecting the internal gradient        .... done
Number of atoms                         ....  14
Number of internal coordinates          ....  64
Current Energy                          ....  -156.432456640 Eh
Current gradient norm                   ....     0.001653893 Eh/bohr
Maximum allowed component of the step   ....  0.300
Current trust radius                    ....  0.300
Updating the Hessian (BFGS)             .... done
Forming the augmented Hessian           .... done
Diagonalizing the augmented Hessian     .... done
Last element of RFO vector              ....  0.999897483
Lowest eigenvalues of augmented Hessian:
 -0.000017275  0.010905926  0.011453177  0.011459577  0.069984712
Length of the computed step             ....  0.014320144
The final length of the internal step   ....  0.014320144
Converting the step to cartesian space:
 Initial RMS(Int)=    0.0017900179
Transforming coordinates:
 Iter   0:  RMS(Cart)=    0.0031696520 RMS(Int)=    0.0017905583
 Iter   1:  RMS(Cart)=    0.0000048314 RMS(Int)=    0.0000034012
 Iter   2:  RMS(Cart)=    0.0000000112 RMS(Int)=    0.0000000082
done
Storing new coordinates                 .... done

                                .--------------------.
          ----------------------|Geometry convergence|---------------------
          Item                value                 Tolerance   Converged
          -----------------------------------------------------------------
          Energy change      -0.00004166            0.00000500      NO
          RMS gradient        0.00018482            0.00010000      NO
          MAX gradient        0.00055506            0.00030000      NO
          RMS step            0.00179002            0.00200000      YES
          MAX step            0.00535685            0.00400000      NO
          ....................................................
          Max(Bonds)      0.0008      Max(Angles)    0.20
          Max(Dihed)        0.31      Max(Improp)    0.00
          -----------------------------------------------------------------

The optimization has not yet converged - more geometry cycles are needed


    ---------------------------------------------------------------------------
                         Redundant Internal Coordinates
                            (Angstroem and degrees)

        Definition                    Value    dE/dq     Step     New-Value
    ----------------------------------------------------------------------------
     1. B(C   1,C   0)                1.5415  0.000128 -0.0001    1.5414   
     2. B(H   2,C   0)                1.0848 -0.000045  0.0001    1.0850   
     3. B(H   3,C   0)                1.0845 -0.000028  0.0000    1.0845   
     4. B(H   4,C   0)                1.0848 -0.000042  0.0001    1.0850   
     5. B(C   5,C   1)                1.5394 -0.000317  0.0008    1.5402   
     6. B(H   6,C   1)                1.0857 -0.000053  0.0001    1.0858   
     7. B(H   7,C   1)                1.0857 -0.000056  0.0001    1.0858   
     8. B(C   8,C   5)                1.5415  0.000129 -0.0001    1.5414   
     9. B(H   9,C   8)                1.0848 -0.000045  0.0001    1.0850   
    10. B(H  10,C   8)                1.0845 -0.000028  0.0000    1.0845   
    11. B(H  11,C   8)                1.0848 -0.000042  0.0001    1.0850   
    12. B(H  12,C   5)                1.0857 -0.000055  0.0001    1.0858   
    13. B(H  13,C   5)                1.0857 -0.000053  0.0001    1.0858   
    14. A(H   3,C   0,H   4)          108.16  0.000073    0.02    108.18   
    15. A(C   1,C   0,H   3)          110.90 -0.000394    0.16    111.06   
    16. A(H   2,C   0,H   3)          108.16  0.000069    0.02    108.18   
    17. A(C   1,C   0,H   4)          110.61  0.000063   -0.03    110.58   
    18. A(C   1,C   0,H   2)          110.63  0.000101   -0.05    110.58   
    19. A(H   2,C   0,H   4)          108.28  0.000098   -0.12    108.15   
    20. A(C   0,C   1,C   5)          112.23  0.000555   -0.12    112.12   
    21. A(C   0,C   1,H   7)          109.36 -0.000323    0.15    109.51   
    22. A(H   6,C   1,H   7)          107.43  0.000305   -0.20    107.22   
    23. A(C   5,C   1,H   6)          109.18 -0.000083   -0.00    109.18   
    24. A(C   0,C   1,H   6)          109.35 -0.000353    0.16    109.51   
    25. A(C   5,C   1,H   7)          109.17 -0.000110    0.01    109.17   
    26. A(C   1,C   5,C   8)          112.23  0.000554   -0.12    112.12   
    27. A(H  12,C   5,H  13)          107.43  0.000305   -0.20    107.22   
    28. A(C   1,C   5,H  13)          109.18 -0.000082   -0.00    109.18   
    29. A(C   8,C   5,H  12)          109.36 -0.000323    0.15    109.51   
    30. A(C   1,C   5,H  12)          109.17 -0.000108    0.01    109.17   
    31. A(C   8,C   5,H  13)          109.35 -0.000353    0.16    109.51   
    32. A(C   5,C   8,H  10)          110.90 -0.000391    0.16    111.06   
    33. A(C   5,C   8,H   9)          110.63  0.000101   -0.05    110.58   
    34. A(H  10,C   8,H  11)          108.16  0.000072    0.02    108.18   
    35. A(H   9,C   8,H  11)          108.28  0.000098   -0.12    108.15   
    36. A(C   5,C   8,H  11)          110.61  0.000062   -0.03    110.58   
    37. A(H   9,C   8,H  10)          108.16  0.000069    0.02    108.18   
    38. D(H   6,C   1,C   0,H   4)    -61.24  0.000108   -0.16    -61.40   
    39. D(H   7,C   1,C   0,H   3)    -58.62  0.000005    0.02    -58.60   
    40. D(C   5,C   1,C   0,H   3)   -179.93  0.000000   -0.02   -179.94   
    41. D(H   7,C   1,C   0,H   2)     61.40 -0.000100    0.11     61.51   
    42. D(C   5,C   1,C   0,H   2)    -59.90 -0.000105    0.08    -59.83   
    43. D(H   6,C   1,C   0,H   3)     58.76 -0.000017   -0.05     58.71   
    44. D(H   7,C   1,C   0,H   4)   -178.62  0.000129   -0.09   -178.72   
    45. D(H   6,C   1,C   0,H   2)    178.78 -0.000122    0.05    178.83   
    46. D(C   5,C   1,C   0,H   4)     60.07  0.000125   -0.13     59.94   
    47. D(H  12,C   5,C   1,H   6)   -179.84  0.000002   -0.07   -179.90   
    48. D(C   8,C   5,C   1,H   7)     58.75  0.000140   -0.19     58.56   
    49. D(C   8,C   5,C   1,H   6)    -58.42 -0.000118    0.05    -58.37   
    50. D(C   8,C   5,C   1,C   0)   -179.83  0.000021   -0.08   -179.90   
    51. D(H  12,C   5,C   1,H   7)    -62.67  0.000259   -0.31    -62.98   
    52. D(H  13,C   5,C   1,H   7)   -179.84  0.000001   -0.07   -179.90   
    53. D(H  13,C   5,C   1,H   6)     62.99 -0.000256    0.18     63.17   
    54. D(H  13,C   5,C   1,C   0)    -58.42 -0.000118    0.05    -58.37   
    55. D(H  12,C   5,C   1,C   0)     58.75  0.000140   -0.19     58.56   
    56. D(H  11,C   8,C   5,H  12)   -178.62  0.000130   -0.10   -178.71   
    57. D(H  11,C   8,C   5,C   1)     60.07  0.000125   -0.13     59.94   
    58. D(H  10,C   8,C   5,H  13)     58.76 -0.000018   -0.05     58.71   
    59. D(H  10,C   8,C   5,H  12)    -58.62  0.000005    0.02    -58.60   
    60. D(H  10,C   8,C   5,C   1)   -179.93  0.000000   -0.02   -179.94   
    61. D(H   9,C   8,C   5,H  13)    178.78 -0.000122    0.05    178.83   
    62. D(H   9,C   8,C   5,H  12)     61.40 -0.000099    0.11     61.52   
    63. D(H  11,C   8,C   5,H  13)    -61.24  0.000107   -0.16    -61.40   
    64. D(H   9,C   8,C   5,C   1)    -59.90 -0.000104    0.08    -59.83   
    ----------------------------------------------------------------------------

         *************************************************************
         *                GEOMETRY OPTIMIZATION CYCLE   4            *
         *************************************************************
---------------------------------
CARTESIAN COORDINATES (ANGSTROEM)
---------------------------------
  C     -8.578863    1.288308    0.012572
  C     -7.267531    2.096485    0.067910
  H     -8.656755    0.751500   -0.927064
  H     -9.441790    1.938961    0.103095
  H     -8.614825    0.564082    0.819632
  C     -6.025058    1.195274   -0.060034
  H     -7.217295    2.642363    1.005186
  H     -7.259744    2.830305   -0.732365
  C     -4.713672    2.003199   -0.002340
  H     -4.677647    2.729953   -0.807124
  H     -3.850792    1.352771   -0.094906
  H     -4.635751    2.537048    0.938975
  H     -6.074558    0.650734   -0.998127
  H     -6.033620    0.460317    0.739190

----------------------------
CARTESIAN COORDINATES (A.U.)
----------------------------
  NO LB      ZA    FRAG    MASS        X           Y           Z
   0 C     6.0000    0    12.011        -16.211700961460128          2.434549491712271          0.023758310872105
   1 C     6.0000    0    12.011        -13.733642411829694          3.961782687926319          0.128330838894551
[...]
 H      6   2   1   2.051924   109.167   301.618

---------------------
BASIS SET INFORMATION
---------------------
There are 2 groups of distinct atoms

 Group   1 Type C   : 6s3p contracted to 3s2p pattern {321/21}
 Group   2 Type H   : 3s contracted to 2s pattern {21}

Atom   0C    basis set group =>   1
Atom   1C    basis set group =>   1
Atom   2H    basis set group =>   2
Atom   3H    basis set group =>   2
Atom   4H    basis set group =>   2
Atom   5C    basis set group =>   1
Atom   6H    basis set group =>   2
Atom   7H    basis set group =>   2
Atom   8C    basis set group =>   1
Atom   9H    basis set group =>   2
Atom  10H    basis set group =>   2
Atom  11H    basis set group =>   2
Atom  12H    basis set group =>   2
Atom  13H    basis set group =>   2
------------------------------------------------------------------------------
                           ORCA GTO INTEGRAL CALCULATION
------------------------------------------------------------------------------

                         BASIS SET STATISTICS AND STARTUP INFO

 # of primitive gaussian shells          ...   66
 # of primitive gaussian functions       ...   90
 # of contracted shell                   ...   40
 # of contracted basis functions         ...   56
 Highest angular momentum                ...    1
 Maximum contraction depth               ...    3
 Integral package used                   ... LIBINT
 Integral threshhold            Thresh   ...  2.500e-11
 Primitive cut-off              TCut     ...  2.500e-12


                              INTEGRAL EVALUATION

 One electron integrals                  ... done
 Pre-screening matrix                    ... done
 Shell pair data                         ... done (   0.000 sec)

-------------------------------------------------------------------------------
                                 ORCA SCF
-------------------------------------------------------------------------------

------------
SCF SETTINGS
------------
Hamiltonian:
 Ab initio Hamiltonian  Method          .... Hartree-Fock(GTOs)


General Settings:
 Integral files         IntName         .... tmp/butane
 Hartree-Fock type      HFTyp           .... RHF
 Total Charge           Charge          ....    0
 Multiplicity           Mult            ....    1
 Number of Electrons    NEL             ....   34
 Basis Dimension        Dim             ....   56
 Nuclear Repulsion      ENuc            ....    130.4877723281 Eh

Convergence Acceleration:
 DIIS                   CNVDIIS         .... on
   Start iteration      DIISMaxIt       ....    12
   Startup error        DIISStart       ....  0.200000
   # of expansion vecs  DIISMaxEq       ....     5
   Bias factor          DIISBfac        ....   1.050
   Max. coefficient     DIISMaxC        ....  10.000
 Newton-Raphson         CNVNR           .... off
 SOSCF                  CNVSOSCF        .... on
   Start iteration      SOSCFMaxIt      ....   150
   Startup grad/error   SOSCFStart      ....  0.003300
 Level Shifting         CNVShift        .... on
   Level shift para.    LevelShift      ....    0.2500
   Turn off err/grad.   ShiftErr        ....    0.0010
 Zerner damping         CNVZerner       .... off
 Static damping         CNVDamp         .... on
   Fraction old density DampFac         ....    0.7000
   Max. Damping (<1)    DampMax         ....    0.9800
   Min. Damping (>=0)   DampMin         ....    0.0000
   Turn off err/grad.   DampErr         ....    0.1000
 Fernandez-Rico         CNVRico         .... off

SCF Procedure:
 Maximum # iterations   MaxIter         ....   125
 SCF integral mode      SCFMode         .... Direct
   Integral package                     .... LIBINT
 Reset frequeny         DirectResetFreq ....    20
 Integral Threshold     Thresh          ....  2.500e-11 Eh
 Primitive CutOff       TCut            ....  2.500e-12 Eh

Convergence Tolerance:
 Convergence Check Mode ConvCheckMode   .... Total+1el-Energy
 Energy Change          TolE            ....  1.000e-08 Eh
 1-El. energy change                    ....  1.000e-05 Eh
 Orbital Gradient       TolG            ....  1.000e-05
 Orbital Rotation angle TolX            ....  1.000e-05
 DIIS Error             TolErr          ....  5.000e-07


Diagonalization of the overlap matrix:
Smallest eigenvalue                        ... 1.217e-02
Time for diagonalization                   ...    0.001 sec
Threshold for overlap eigenvalues          ... 1.000e-08
Number of eigenvalues below threshold      ... 0
Time for construction of square roots      ...    0.000 sec
Total time needed                          ...    0.002 sec

---------------------
INITIAL GUESS: MOREAD
---------------------
Guess MOs are being read from file: tmp/butane.gbw
Input Geometry matches current geometry (good)
Input basis set matches current basis set (good)
MOs were renormalized
MOs were reorthogonalized (Schmidt)
                      ------------------
                      INITIAL GUESS DONE (   0.0 sec)
                      ------------------
--------------
SCF ITERATIONS
--------------
ITER       Energy         Delta-E        Max-DP      RMS-DP      [F,P]     Damp
               ***  Starting incremental Fock matrix formation  ***
                      *** Initiating the SOSCF procedure ***
                      *** Re-Reading the Fockian *** 
                      *** Removing any level shift *** 
ITER      Energy       Delta-E        Grad      Rot      Max-DP    RMS-DP
  0   -156.43246632 -156.4324663229  0.000084  0.000084  0.000077  0.000010
               *** Restarting incremental Fock matrix formation ***
  1   -156.43246658  -0.0000002589  0.000027  0.000026  0.000042  0.000005
  2   -156.43246662  -0.0000000417  0.000010  0.000014  0.000023  0.000003
                  ***Gradient check signals convergence***
              ***Rediagonalizing the Fockian in SOSCF/NRSCF***

               *****************************************************
               *                     SUCCESS                       *
               *           SCF CONVERGED AFTER   3 CYCLES          *
               *****************************************************


----------------
TOTAL SCF ENERGY
----------------

Total Energy       :         -156.43246663 Eh           -4256.74383 eV

Components:
Nuclear Repulsion  :          130.48777233 Eh            3550.75280 eV
Electronic Energy  :         -286.92023896 Eh           -7807.49663 eV

One Electron Energy:         -467.68684980 Eh          -12726.40618 eV
Two Electron Energy:          180.76661085 Eh            4918.90955 eV

Virial components:
Potential Energy   :         -312.61385250 Eh           -8506.65540 eV
Kinetic Energy     :          156.18138588 Eh            4249.91157 eV
Virial Ratio       :            2.00160762


---------------
SCF CONVERGENCE
---------------

  Last Energy change         ...   -4.8400e-09  Tolerance :   1.0000e-08
  Last MAX-Density change    ...    3.3226e-06  Tolerance :   1.0000e-07
  Last RMS-Density change    ...    3.2357e-07  Tolerance :   5.0000e-09
  Last Orbital Gradient      ...    1.2921e-06  Tolerance :   1.0000e-05
  Last Orbital Rotation      ...    1.2953e-06  Tolerance :   1.0000e-05

             **** THE GBW FILE WAS UPDATED (tmp/butane.gbw) ****
             **** DENSITY FILE WAS UPDATED (tmp/butane.scfp.tmp) ****
             **** ENERGY FILE WAS UPDATED (tmp/butane.en.tmp) ****
----------------
ORBITAL ENERGIES
----------------

  NO   OCC          E(Eh)            E(eV) 
   0   2.0000     -11.157484      -303.6106 
   1   2.0000     -11.157287      -303.6052 
   2   2.0000     -11.149354      -303.3893 
   3   2.0000     -11.149166      -303.3842 
   4   2.0000      -1.070299       -29.1243 
   5   2.0000      -0.981872       -26.7181 
   6   2.0000      -0.864249       -23.5174 
   7   2.0000      -0.792229       -21.5576 
   8   2.0000      -0.641991       -17.4695 
   9   2.0000      -0.585470       -15.9314 
  10   2.0000      -0.573489       -15.6054 
  11   2.0000      -0.569982       -15.5100 
  12   2.0000      -0.513696       -13.9784 
  13   2.0000      -0.496235       -13.5032 
  14   2.0000      -0.463400       -12.6098 
  15   2.0000      -0.460662       -12.5352 
  16   2.0000      -0.449909       -12.2426 
  17   0.0000       0.265496         7.2245 
  18   0.0000       0.297229         8.0880 
  19   0.0000       0.308906         8.4058 
  20   0.0000       0.324503         8.8302 
  21   0.0000       0.347356         9.4520 
  22   0.0000       0.365822         9.9545 
  23   0.0000       0.366753         9.9799 
  24   0.0000       0.373859        10.1732 
  25   0.0000       0.381903        10.3921 
  26   0.0000       0.383804        10.4439 
  27   0.0000       0.442194        12.0327 
  28   0.0000       0.450740        12.2653 
  29   0.0000       0.453231        12.3330 
  30   0.0000       0.897396        24.4194 
  31   0.0000       0.906023        24.6541 
  32   0.0000       0.913171        24.8486 
  33   0.0000       0.941003        25.6060 
  34   0.0000       1.012064        27.5396 
  35   0.0000       1.029309        28.0089 
  36   0.0000       1.058024        28.7903 
  37   0.0000       1.093206        29.7476 
  38   0.0000       1.106846        30.1188 
  39   0.0000       1.192169        32.4406 
  40   0.0000       1.257119        34.2080 
  41   0.0000       1.269921        34.5563 
  42   0.0000       1.355388        36.8820 
  43   0.0000       1.370824        37.3020 
  44   0.0000       1.374077        37.3905 
  45   0.0000       1.394770        37.9536 
  46   0.0000       1.395856        37.9832 
  47   0.0000       1.409790        38.3623 
  48   0.0000       1.443953        39.2920 
  49   0.0000       1.462382        39.7934 
  50   0.0000       1.462394        39.7938 
  51   0.0000       1.545926        42.0668 
  52   0.0000       1.886374        51.3308 
  53   0.0000       2.167013        58.9674 
  54   0.0000       2.303553        62.6829 
  55   0.0000       2.578468        70.1637 

                    ********************************
                    * MULLIKEN POPULATION ANALYSIS *
                    ********************************

-----------------------
MULLIKEN ATOMIC CHARGES
-----------------------
   0 C :   -0.582763
   1 C :   -0.417708
   2 H :    0.197325
   3 H :    0.199245
   4 H :    0.197330
   5 C :   -0.417708
   6 H :    0.203284
   7 H :    0.203286
   8 C :   -0.582763
   9 H :    0.197325
  10 H :    0.199245
  11 H :    0.197330
  12 H :    0.203286
  13 H :    0.203284
Sum of atomic charges:   -0.0000000

--------------------------------
MULLIKEN REDUCED ORBITAL CHARGES
--------------------------------
  0 C s       :     3.459170  s :     3.459170
      pz      :     1.099786  p :     3.123593
      px      :     0.970538
      py      :     1.053268
  1 C s       :     3.445996  s :     3.445996
      pz      :     1.107220  p :     2.971712
      px      :     0.865892
      py      :     0.998600
  2 H s       :     0.802675  s :     0.802675
  3 H s       :     0.800755  s :     0.800755
  4 H s       :     0.802670  s :     0.802670
  5 C s       :     3.445996  s :     3.445996
      pz      :     1.107205  p :     2.971712
      px      :     0.865884
      py      :     0.998623
  6 H s       :     0.796716  s :     0.796716
  7 H s       :     0.796714  s :     0.796714
  8 C s       :     3.459170  s :     3.459170
      pz      :     1.099773  p :     3.123593
      px      :     0.970530
      py      :     1.053289
  9 H s       :     0.802675  s :     0.802675
 10 H s       :     0.800755  s :     0.800755
 11 H s       :     0.802670  s :     0.802670
 12 H s       :     0.796714  s :     0.796714
 13 H s       :     0.796716  s :     0.796716


                     *******************************
                     * LOEWDIN POPULATION ANALYSIS *
                     *******************************

----------------------
LOEWDIN ATOMIC CHARGES
----------------------
   0 C :   -0.256919
   1 C :   -0.160204
   2 H :    0.085173
   3 H :    0.086386
   4 H :    0.085174
   5 C :   -0.160204
   6 H :    0.080193
   7 H :    0.080197
   8 C :   -0.256919
   9 H :    0.085173
  10 H :    0.086386
  11 H :    0.085174
  12 H :    0.080197
  13 H :    0.080193

-------------------------------
LOEWDIN REDUCED ORBITAL CHARGES
-------------------------------
  0 C s       :     2.967648  s :     2.967648
      pz      :     1.116145  p :     3.289271
      px      :     1.071714
      py      :     1.101412
  1 C s       :     2.948911  s :     2.948911
      pz      :     1.105354  p :     3.211293
      px      :     1.029650
      py      :     1.076289
  2 H s       :     0.914827  s :     0.914827
  3 H s       :     0.913614  s :     0.913614
  4 H s       :     0.914826  s :     0.914826
  5 C s       :     2.948911  s :     2.948911
      pz      :     1.105351  p :     3.211293
      px      :     1.029647
      py      :     1.076294
  6 H s       :     0.919807  s :     0.919807
  7 H s       :     0.919803  s :     0.919803
  8 C s       :     2.967648  s :     2.967648
      pz      :     1.116141  p :     3.289271
      px      :     1.071712
      py      :     1.101419
  9 H s       :     0.914827  s :     0.914827
 10 H s       :     0.913614  s :     0.913614
 11 H s       :     0.914826  s :     0.914826
 12 H s       :     0.919803  s :     0.919803
 13 H s       :     0.919807  s :     0.919807


                      *****************************
                      * MAYER POPULATION ANALYSIS *
                      *****************************

  NA   - Mulliken gross atomic population
  ZA   - Total nuclear charge
  QA   - Mulliken gross atomic charge
  VA   - Mayer's total valence
  BVA  - Mayer's bonded valence
  FA   - Mayer's free valence

  ATOM       NA         ZA         QA         VA         BVA        FA
  0 C      6.5828     6.0000    -0.5828     3.6740     3.6740    -0.0000
  1 C      6.4177     6.0000    -0.4177     3.6086     3.6086     0.0000
  2 H      0.8027     1.0000     0.1973     0.9161     0.9161    -0.0000
  3 H      0.8008     1.0000     0.1992     0.9170     0.9170    -0.0000
  4 H      0.8027     1.0000     0.1973     0.9161     0.9161    -0.0000
  5 C      6.4177     6.0000    -0.4177     3.6086     3.6086    -0.0000
  6 H      0.7967     1.0000     0.2033     0.9096     0.9096    -0.0000
  7 H      0.7967     1.0000     0.2033     0.9096     0.9096     0.0000
  8 C      6.5828     6.0000    -0.5828     3.6740     3.6740    -0.0000
  9 H      0.8027     1.0000     0.1973     0.9161     0.9161    -0.0000
 10 H      0.8008     1.0000     0.1992     0.9170     0.9170    -0.0000
 11 H      0.8027     1.0000     0.1973     0.9161     0.9161    -0.0000
 12 H      0.7967     1.0000     0.2033     0.9096     0.9096     0.0000
 13 H      0.7967     1.0000     0.2033     0.9096     0.9096    -0.0000

  Mayer bond orders larger than 0.1
B(  0-C ,  1-C ) :   0.9229 B(  0-C ,  2-H ) :   0.9284 B(  0-C ,  3-H ) :   0.9319 
B(  0-C ,  4-H ) :   0.9284 B(  1-C ,  5-C ) :   0.9041 B(  1-C ,  6-H ) :   0.9228 
B(  1-C ,  7-H ) :   0.9228 B(  5-C ,  8-C ) :   0.9229 B(  5-C , 12-H ) :   0.9228 
B(  5-C , 13-H ) :   0.9228 B(  8-C ,  9-H ) :   0.9284 B(  8-C , 10-H ) :   0.9319 
B(  8-C , 11-H ) :   0.9284 

-------
TIMINGS
-------

Total SCF time: 0 days 0 hours 0 min 1 sec 

Total time                  ....       1.069 sec
Sum of individual times     ....       1.067 sec  ( 99.8%)

Fock matrix formation       ....       1.059 sec  ( 99.1%)
Diagonalization             ....       0.001 sec  (  0.1%)
Density matrix formation    ....       0.000 sec  (  0.0%)
Population analysis         ....       0.002 sec  (  0.2%)
Initial guess               ....       0.001 sec  (  0.1%)
Orbital Transformation      ....       0.000 sec  (  0.0%)
Orbital Orthonormalization  ....       0.001 sec  (  0.1%)
DIIS solution               ....       0.000 sec  (  0.0%)
SOSCF solution              ....       0.003 sec  (  0.3%)

-------------------------   --------------------
FINAL SINGLE POINT ENERGY      -156.432466628327
-------------------------   --------------------

                                *** OPTIMIZATION RUN DONE ***

                            ***************************************
                            *     ORCA property calculations      *
                            ***************************************

                                    ---------------------
                                    Active property flags
                                    ---------------------
   (+) Dipole Moment


------------------------------------------------------------------------------
                       ORCA ELECTRIC PROPERTIES CALCULATION
------------------------------------------------------------------------------

Dipole Moment Calculation                       ... on
Quadrupole Moment Calculation                   ... off
Polarizability Calculation                      ... off
GBWName                                         ... tmp/butane.gbw
Electron density file                           ... tmp/butane.scfp.tmp

-------------
DIPOLE MOMENT
-------------
                                X             Y             Z
Electronic contribution:     -0.00001       0.00007      -0.00060
Nuclear contribution   :      0.00001      -0.00006       0.00058
                        -----------------------------------------
Total Dipole Moment    :     -0.00000       0.00000      -0.00002
                        -----------------------------------------
Magnitude (a.u.)       :      0.00002
Magnitude (Debye)      :      0.00006

------------------------------------------------------------------------------
                      ORCA CHELPG CHARGES GENERATION
------------------------------------------------------------------------------

GBW file                           ... tmp/butane.gbw

Reading the GBW file               ... done

Grid spacing                       ...     0.300000
Point Cut-Off                      ...     2.800000
Van-der-Waals Radii                ...        COSMO
Total charge                       ...            0


Number of points X direction       ...           37
Number of points Y direction       ...           26
Number of points Z direction       ...           25
Maximum number of possible points  ...        24050
Final number of points             ...        10101


CHELPG Charges            
--------------------------------
  0   C   :      -0.453442
  1   C   :       0.103338
  2   H   :       0.108098
  3   H   :       0.118298
  4   H   :       0.108000
  5   C   :       0.105433
  6   H   :       0.007160
  7   H   :       0.007646
  8   C   :      -0.444767
  9   H   :       0.105644
 10   H   :       0.115569
 11   H   :       0.105799
 12   H   :       0.006451
 13   H   :       0.006772
--------------------------------
Total charge:    -0.000000
--------------------------------

CHELPG charges calculated...

Timings for individual parts in CHELPG calculation:
Grid generation                 ...        0.003 sec (=   0.000 min)
Potential calculation           ...        1.053 sec (=   0.018 min)
Fit to the potential            ...        0.008 sec (=   0.000 min)
------------------------------------------------------------------------------


Timings for individual modules:

Sum of individual times         ...       13.689 sec (=   0.228 min)
GTO integral calculation        ...        0.940 sec (=   0.016 min)   6.9 %
SCF iterations                  ...        8.869 sec (=   0.148 min)  64.8 %
SCF Gradient evaluation         ...        2.551 sec (=   0.043 min)  18.6 %
Geometry relaxation             ...        0.225 sec (=   0.004 min)   1.6 %
CHELPG charge generation        ...        1.103 sec (=   0.018 min)   8.1 %
                             ****ORCA TERMINATED NORMALLY****
TOTAL RUN TIME: 0 days 0 hours 0 minutes 13 seconds 964 msec
