
                                 *****************
                                 * O   R   C   A *
                                 *****************

           --- An Ab Initio, DFT and Semiempirical electronic structure package ---

                  #######################################################
                  #                        -***-                        #
                  #  Department of molecular theory and spectroscopy    #
                  #              Directorship: Frank Neese              #
                  # Max Planck Institute for Chemical Energy Conversion #
                  #                  D-45470 Muelheim/Ruhr              #
                  #                       Germany                       #
                  #                                                     #
                  #                  All rights reserved                #
                  #                        -***-                        #
                  #######################################################


                         Program Version 3.0.3 - RELEASE   -


 With contributions from (in alphabetic order):
   Ute Becker             : Parallelization
   Dmytro Bykov           : SCF Hessian
   Dmitry Ganyushin       : Spin-Orbit,Spin-Spin,Magnetic field MRCI
   Andreas Hansen         : Spin unrestricted coupled pair/coupled cluster methods
   Dimitrios Liakos       : Extrapolation schemes; parallel MDCI
   Robert Izsak           : Overlap fitted RIJCOSX, COSX-SCS-MP3
   Christian Kollmar      : KDIIS, OOCD, Brueckner-CCSD(T), CCSD density
   Simone Kossmann        : Meta GGA functionals, TD-DFT gradient, OOMP2, MP2 Hessian
   Taras Petrenko         : DFT Hessian,TD-DFT gradient, ASA and ECA modules, normal mode analysis, Resonance Raman, ABS, FL, XAS/XES, NRVS
   Christoph Reimann      : Effective Core Potentials
   Michael Roemelt        : Restricted open shell CIS
   Christoph Riplinger    : Improved optimizer, TS searches, QM/MM, DLPNO-CCSD
   Barbara Sandhoefer     : DKH picture change effects
   Igor Schapiro          : Molecular dynamics
   Kantharuban Sivalingam : CASSCF convergence, NEVPT2
   Boris Wezisla          : Elementary symmetry handling
   Frank Wennmohs         : Technical directorship


 We gratefully acknowledge several colleagues who have allowed us to
 interface, adapt or use parts of their codes:
   Stefan Grimme, W. Hujo, H. Kruse, T. Risthaus : VdW corrections, initial TS optimization,
                                                   DFT functionals, gCP
   Ed Valeev                                     : LibInt (2-el integral package), F12 methods
   Garnet Chan, S. Sharma, R. Olivares           : DMRG
   Ulf Ekstrom                                   : XCFun DFT Library
   Mihaly Kallay                                 : mrcc  (arbitrary order and MRCC methods)
   Andreas Klamt, Michael Diedenhofen            : otool_cosmo (COSMO solvation model)
   Frank Weinhold                                : gennbo (NPA and NBO analysis)
   Christopher J. Cramer and Donald G. Truhlar   : smd solvation model


 Your calculation uses the libint2 library for the computation of 2-el integrals
 For citations please refer to: http://libint.valeyev.net

 This ORCA versions uses:
   CBLAS   interface :  Fast vector & matrix operations
   LAPACKE interface :  Fast linear algebra routines
   SCALAPACK package :  Parallel linear algebra routines


Your calculation utilizes the basis: 6-31G
Cite in your paper:
H - He: W.J. Hehre, R. Ditchfield and J.A. Pople, J. Chem. Phys. 56,
Li - Ne: 2257 (1972).  Note: Li and B come from J.D. Dill and J.A.
         Pople, J. Chem. Phys. 62, 2921 (1975).
Na - Ar: M.M. Francl, W.J. Pietro, W.J. Hehre, J.S. Binkley, M.S. Gordon,
         D.J. DeFrees and J.A. Pople, J. Chem. Phys. 77, 3654 (1982)
K  - Zn: V. Rassolov, J.A. Pople, M. Ratner and T.L. Windus, J. Chem. Phys.
         (accepted, 1998)
Note: He and Ne are unpublished basis sets taken from the Gaussian program

================================================================================
                                        WARNINGS
                       Please study these warnings very carefully!
================================================================================
Now building the actual basis set


INFO   : the flag for use of LIBINT has been found!

================================================================================
                                       INPUT FILE
================================================================================
NAME = tmp/butane.inp
|  1> # ----------------------------------------------------------------
|  2> #            Orca input file - butane                 
|  3> # ----------------------------------------------------------------
|  4> ! B3LYP
|  5> !  6-31G CHELPG 
|  6> * xyz   0   1  
|  7> C  -8.552000 1.288900 0.012900 
|  8> C  -7.260500 2.099900 0.066500 
|  9> H  -8.627300 0.745300 -0.952900 
| 10> H  -9.423600 1.970400 0.106400 
| 11> H  -8.582300 0.556500 0.847600 
| 12> C  -6.032200 1.192200 -0.061800 
| 13> H  -7.221500 2.647800 1.033300 
| 14> H  -7.266200 2.840000 -0.763300 
| 15> C  -4.740500 2.002400 -0.000900 
| 16> H  -4.708300 2.741400 -0.829600 
| 17> H  -3.868900 1.321300 -0.097600 
| 18> H  -4.666900 2.538300 0.969500 
| 19> H  -6.069600 0.647900 -1.030700 
| 20> H  -6.028100 0.449000 0.765200 
| 21> *                                                                 
| 22> 
| 23>                          ****END OF INPUT****
================================================================================

                       ****************************
                       * Single Point Calculation *
                       ****************************

---------------------------------
CARTESIAN COORDINATES (ANGSTROEM)
---------------------------------
  C     -8.552000    1.288900    0.012900
  C     -7.260500    2.099900    0.066500
  H     -8.627300    0.745300   -0.952900
  H     -9.423600    1.970400    0.106400
  H     -8.582300    0.556500    0.847600
  C     -6.032200    1.192200   -0.061800
  H     -7.221500    2.647800    1.033300
  H     -7.266200    2.840000   -0.763300
  C     -4.740500    2.002400   -0.000900
  H     -4.708300    2.741400   -0.829600
  H     -3.868900    1.321300   -0.097600
  H     -4.666900    2.538300    0.969500
  H     -6.069600    0.647900   -1.030700
  H     -6.028100    0.449000    0.765200

----------------------------
CARTESIAN COORDINATES (A.U.)
----------------------------
  NO LB      ZA    FRAG    MASS        X           Y           Z
   0 C     6.0000    0    12.011        -16.160937897294545          2.435668014011101          0.024377467127584
   1 C     6.0000    0    12.011        -13.720356595335248          3.968235908621236          0.125666787905763
   2 H     1.0000    0     1.008        -16.303234275178813          1.408412887611509         -1.800720033013561
   3 H     1.0000    0     1.008        -17.808023195620308          3.723516374278434          0.201066860649221
   4 H     1.0000    0     1.008        -16.218196599152357          1.051632593527177          1.601731871111653
   5 C     6.0000    0    12.011        -11.399205985039773          2.252931496860916         -0.116785075076333
   6 H     1.0000    0     1.008        -13.646657276112318          5.003616857396691          1.952654014180830
   7 H     1.0000    0     1.008        -13.731128034298600          5.366822220336354         -1.442427958022091
   8 C     6.0000    0    12.011         -8.958246737853694          3.783987610563915         -0.001700753520529
   9 H     1.0000    0     1.008         -8.897397556341430          5.180495223531719         -1.567716800701070
  10 H     1.0000    0     1.008         -7.311161439527931          2.496895140750150         -0.184437270670714
  11 H     1.0000    0     1.008         -8.819162894397090          4.796691845732313          1.832089486836654
  12 H     1.0000    0     1.008        -11.469881742448429          1.224353562167579         -1.947740726232634
  13 H     1.0000    0     1.008        -11.391458107890697          0.848487034130642          1.446018437676542

--------------------------------
INTERNAL COORDINATES (ANGSTROEM)
--------------------------------
 C      0   0   0   0.000000     0.000     0.000
 C      1   0   0   1.525964     0.000     0.000
 H      1   2   0   1.110829   110.365     0.000
 H      1   2   3   1.110347   109.585   240.345
 H      1   2   3   1.110879   110.309   120.754
 C      2   1   3   1.532678   111.136   299.738
 H      2   1   3   1.111943   108.790   178.901
 H      2   1   3   1.111912   108.856    60.569
 C      6   2   1   1.525982   111.136   180.296
 H      9   6   2   1.110811   110.364   299.742
 H      9   6   2   1.110376   109.591   180.085
 H      9   6   2   1.110982   110.306    60.493
 H      6   2   1   1.111948   109.626    59.919
 H      6   2   1   1.111887   109.667   300.619

---------------------------
INTERNAL COORDINATES (A.U.)
---------------------------
 C      0   0   0   0.000000     0.000     0.000
 C      1   0   0   2.883654     0.000     0.000
 H      1   2   0   2.099162   110.365     0.000
 H      1   2   3   2.098252   109.585   240.345
 H      1   2   3   2.099257   110.309   120.754
 C      2   1   3   2.896341   111.136   299.738
 H      2   1   3   2.101268   108.790   178.901
 H      2   1   3   2.101209   108.856    60.569
 C      6   2   1   2.883688   111.136   180.296
 H      9   6   2   2.099129   110.364   299.742
 H      9   6   2   2.098306   109.591   180.085
 H      9   6   2   2.099453   110.306    60.493
 H      6   2   1   2.101277   109.626    59.919
 H      6   2   1   2.101161   109.667   300.619

---------------------
BASIS SET INFORMATION
---------------------
There are 2 groups of distinct atoms

 Group   1 Type C   : 10s4p contracted to 3s2p pattern {631/31}
 Group   2 Type H   : 4s contracted to 2s pattern {31}

Atom   0C    basis set group =>   1
Atom   1C    basis set group =>   1
Atom   2H    basis set group =>   2
Atom   3H    basis set group =>   2
Atom   4H    basis set group =>   2
Atom   5C    basis set group =>   1
Atom   6H    basis set group =>   2
Atom   7H    basis set group =>   2
Atom   8C    basis set group =>   1
Atom   9H    basis set group =>   2
Atom  10H    basis set group =>   2
Atom  11H    basis set group =>   2
Atom  12H    basis set group =>   2
Atom  13H    basis set group =>   2

Checking for AutoStart:
The File: tmp/butane.gbw exists
Trying to determine its content:
     ... Fine, the file contains calculation information
     ... Fine, the calculation information was read
     ... Fine, the file contains a basis set
     ... Fine, the basis set was read
     ... Fine, the file contains a geometry
     ... Fine, the geometry was read
     ... Fine, the file contains a set of orbitals
     ... Fine, the orbitals can be read
     => possible old guess file was deleted
     => GBW file was renamed to GES file
     => GES file is set as startup file
     => Guess is set to MORead
     ... now leaving AutoStart

------------------------------------------------------------------------------
                           ORCA GTO INTEGRAL CALCULATION
------------------------------------------------------------------------------

                         BASIS SET STATISTICS AND STARTUP INFO

 # of primitive gaussian shells          ...   96
 # of primitive gaussian functions       ...  128
 # of contracted shell                   ...   40
 # of contracted basis functions         ...   56
 Highest angular momentum                ...    1
 Maximum contraction depth               ...    6
 Integral package used                   ... LIBINT
 Integral threshhold            Thresh   ...  1.000e-10
 Primitive cut-off              TCut     ...  1.000e-11


                              INTEGRAL EVALUATION

 One electron integrals                  ... done
 Pre-screening matrix                    ... done
 Shell pair data                         ... done (   0.001 sec)

-------------------------------------------------------------------------------
                                 ORCA SCF
-------------------------------------------------------------------------------

------------
SCF SETTINGS
------------
Hamiltonian:
 Density Functional     Method          .... DFT(GTOs)
 Exchange Functional    Exchange        .... B88
   X-Alpha parameter    XAlpha          ....  0.666667
   Becke's b parameter  XBeta           ....  0.004200
 Correlation Functional Correlation     .... LYP
 LDA part of GGA corr.  LDAOpt          .... VWN-5
 Gradients option       PostSCFGGA      .... off
 Hybrid DFT is turned on
   Fraction HF Exchange ScalHFX         ....  0.200000
   Scaling of DF-GGA-X  ScalDFX         ....  0.720000
   Scaling of DF-GGA-C  ScalDFC         ....  0.810000
   Scaling of DF-LDA-C  ScalLDAC        ....  1.000000
   Perturbative correction              ....  0.000000
   NL short-range parameter             ....  4.800000


General Settings:
 Integral files         IntName         .... tmp/butane
 Hartree-Fock type      HFTyp           .... RHF
 Total Charge           Charge          ....    0
 Multiplicity           Mult            ....    1
 Number of Electrons    NEL             ....   34
 Basis Dimension        Dim             ....   56
 Nuclear Repulsion      ENuc            ....    130.3817816380 Eh

Convergence Acceleration:
 DIIS                   CNVDIIS         .... on
   Start iteration      DIISMaxIt       ....    12
   Startup error        DIISStart       ....  0.200000
   # of expansion vecs  DIISMaxEq       ....     5
   Bias factor          DIISBfac        ....   1.050
   Max. coefficient     DIISMaxC        ....  10.000
 Newton-Raphson         CNVNR           .... off
 SOSCF                  CNVSOSCF        .... on
   Start iteration      SOSCFMaxIt      ....   150
   Startup grad/error   SOSCFStart      ....  0.003300
 Level Shifting         CNVShift        .... on
   Level shift para.    LevelShift      ....    0.2500
   Turn off err/grad.   ShiftErr        ....    0.0010
 Zerner damping         CNVZerner       .... off
 Static damping         CNVDamp         .... on
   Fraction old density DampFac         ....    0.7000
   Max. Damping (<1)    DampMax         ....    0.9800
   Min. Damping (>=0)   DampMin         ....    0.0000
   Turn off err/grad.   DampErr         ....    0.1000
 Fernandez-Rico         CNVRico         .... off

SCF Procedure:
 Maximum # iterations   MaxIter         ....   125
 SCF integral mode      SCFMode         .... Direct
   Integral package                     .... LIBINT
 Reset frequeny         DirectResetFreq ....    20
 Integral Threshold     Thresh          ....  1.000e-10 Eh
 Primitive CutOff       TCut            ....  1.000e-11 Eh

Convergence Tolerance:
 Convergence Check Mode ConvCheckMode   .... Total+1el-Energy
 Energy Change          TolE            ....  1.000e-06 Eh
 1-El. energy change                    ....  1.000e-03 Eh
 Orbital Gradient       TolG            ....  5.000e-05
 Orbital Rotation angle TolX            ....  5.000e-05
 DIIS Error             TolErr          ....  1.000e-06


Diagonalization of the overlap matrix:
Smallest eigenvalue                        ... 5.659e-03
Time for diagonalization                   ...    0.001 sec
Threshold for overlap eigenvalues          ... 1.000e-08
Number of eigenvalues below threshold      ... 0
Time for construction of square roots      ...    0.000 sec
Total time needed                          ...    0.001 sec

---------------------
INITIAL GUESS: MOREAD
---------------------
Guess MOs are being read from file: tmp/butane.ges
Input Geometry matches current geometry (good)
Input basis set matches current basis set (good)
MOs were renormalized
MOs were reorthogonalized (Cholesky)
                      ------------------
                      INITIAL GUESS DONE (   0.0 sec)
                      ------------------
-------------------
DFT GRID GENERATION
-------------------

General Integration Accuracy     IntAcc      ...  4.340
Radial Grid Type                 RadialGrid  ... Gauss-Chebyshev
Angular Grid (max. acc.)         AngularGrid ... Lebedev-110
Angular grid pruning method      GridPruning ... 3 (G Style)
Weight generation scheme         WeightScheme... Becke
Basis function cutoff            BFCut       ...    1.0000e-10
Integration weight cutoff        WCut        ...    1.0000e-14
Grids for H and He will be reduced by one unit

# of grid points (after initial pruning)     ...  14564 (   0.0 sec)
# of grid points (after weights+screening)   ...  13551 (   0.0 sec)
nearest neighbour list constructed           ...    0.0 sec
Grid point re-assignment to atoms done       ...    0.0 sec
Grid point division into batches done        ...    0.0 sec
Reduced shell lists constructed in    0.1 sec

Total number of grid points                  ...    13551
Total number of batches                      ...      220
Average number of points per batch           ...       61
Average number of grid points per atom       ...      968
Average number of shells per batch           ...    32.24 (80.60%)
Average number of basis functions per batch  ...    46.67 (83.33%)
Average number of large shells per batch     ...    26.54 (82.32%)
Average number of large basis fcns per batch ...    39.46 (84.56%)
Maximum spatial batch extension              ...  18.47, 21.02, 21.59 au
Average spatial batch extension              ...   3.75,  4.01,  3.88 au

Time for grid setup =    0.140 sec

--------------
SCF ITERATIONS
--------------
ITER       Energy         Delta-E        Max-DP      RMS-DP      [F,P]     Damp
               ***  Starting incremental Fock matrix formation  ***
                      *** Initiating the SOSCF procedure ***
                      *** Re-Reading the Fockian *** 
                      *** Removing any level shift *** 
ITER      Energy       Delta-E        Grad      Rot      Max-DP    RMS-DP
  0   -158.29581834 -158.2958183408  0.000002  0.000002  0.000005  0.000000
               *** Restarting incremental Fock matrix formation ***
                 **** Energy Check signals convergence ****
              ***Rediagonalizing the Fockian in SOSCF/NRSCF***

               *****************************************************
               *                     SUCCESS                       *
               *           SCF CONVERGED AFTER   1 CYCLES          *
               *****************************************************

Setting up the final grid:

General Integration Accuracy     IntAcc      ...  4.670
Radial Grid Type                 RadialGrid  ... Gauss-Chebyshev
Angular Grid (max. acc.)         AngularGrid ... Lebedev-302
Angular grid pruning method      GridPruning ... 3 (G Style)
Weight generation scheme         WeightScheme... Becke
Basis function cutoff            BFCut       ...    1.0000e-10
Integration weight cutoff        WCut        ...    1.0000e-14
Grids for H and He will be reduced by one unit

# of grid points (after initial pruning)     ...  58788 (   0.0 sec)
# of grid points (after weights+screening)   ...  54297 (   0.1 sec)
nearest neighbour list constructed           ...    0.0 sec
Grid point re-assignment to atoms done       ...    0.0 sec
Grid point division into batches done        ...    0.1 sec
Reduced shell lists constructed in    0.5 sec

Total number of grid points                  ...    54297
Total number of batches                      ...      854
Average number of points per batch           ...       63
Average number of grid points per atom       ...     3878
Average number of shells per batch           ...    29.79 (74.47%)
Average number of basis functions per batch  ...    43.29 (77.31%)
Average number of large shells per batch     ...    23.98 (80.49%)
Average number of large basis fcns per batch ...    35.90 (82.93%)
Maximum spatial batch extension              ...  19.26, 20.43, 20.64 au
Average spatial batch extension              ...   2.52,  2.63,  2.54 au

Final grid set up in    0.6 sec
Final integration                            ... done (   0.5 sec)
Change in XC energy                          ...     0.001106218
Integrated number of electrons               ...    34.000184827
Previous integrated no of electrons          ...    34.008488887

----------------
TOTAL SCF ENERGY
----------------

Total Energy       :         -158.29471212 Eh           -4307.41810 eV

Components:
Nuclear Repulsion  :          130.38178164 Eh            3547.86865 eV
Electronic Energy  :         -288.67649376 Eh           -7855.28675 eV

One Electron Energy:         -469.25941888 Eh          -12769.19796 eV
Two Electron Energy:          180.58292512 Eh            4913.91121 eV

Virial components:
Potential Energy   :         -315.63483803 Eh           -8588.86059 eV
Kinetic Energy     :          157.34012591 Eh            4281.44249 eV
Virial Ratio       :            2.00606702


DFT components:
N(Alpha)           :       17.000092413435 electrons
N(Beta)            :       17.000092413435 electrons
N(Total)           :       34.000184826869 electrons
E(X)               :      -19.191867489118 Eh       
E(C)               :       -1.259976758969 Eh       
E(XC)              :      -20.451844248087 Eh       

---------------
SCF CONVERGENCE
---------------

  Last Energy change         ...   -4.3485e-11  Tolerance :   1.0000e-06
  Last MAX-Density change    ...    4.7713e-06  Tolerance :   1.0000e-05
  Last RMS-Density change    ...    3.2076e-07  Tolerance :   1.0000e-06
  Last Orbital Gradient      ...    1.3867e-06  Tolerance :   5.0000e-05
  Last Orbital Rotation      ...    1.8574e-06  Tolerance :   5.0000e-05

             **** THE GBW FILE WAS UPDATED (tmp/butane.gbw) ****
             **** DENSITY FILE WAS UPDATED (tmp/butane.scfp.tmp) ****
             **** ENERGY FILE WAS UPDATED (tmp/butane.en.tmp) ****
----------------
ORBITAL ENERGIES
----------------

  NO   OCC          E(Eh)            E(eV) 
   0   2.0000     -10.169613      -276.7292 
   1   2.0000     -10.169479      -276.7256 
   2   2.0000     -10.163621      -276.5662 
   3   2.0000     -10.163608      -276.5658 
   4   2.0000      -0.789261       -21.4769 
   5   2.0000      -0.716843       -19.5063 
   6   2.0000      -0.617369       -16.7995 
   7   2.0000      -0.565891       -15.3987 
   8   2.0000      -0.465502       -12.6670 
   9   2.0000      -0.420351       -11.4383 
  10   2.0000      -0.408466       -11.1149 
  11   2.0000      -0.405635       -11.0379 
  12   2.0000      -0.359297        -9.7770 
  13   2.0000      -0.342866        -9.3299 
  14   2.0000      -0.324443        -8.8286 
  15   2.0000      -0.318023        -8.6539 
  16   2.0000      -0.309708        -8.4276 
  17   0.0000       0.091693         2.4951 
  18   0.0000       0.120000         3.2654 
  19   0.0000       0.130246         3.5442 
  20   0.0000       0.143165         3.8957 
  21   0.0000       0.169365         4.6086 
  22   0.0000       0.186024         5.0620 
  23   0.0000       0.186180         5.0662 
  24   0.0000       0.187525         5.1028 
  25   0.0000       0.200662         5.4603 
  26   0.0000       0.201080         5.4717 
  27   0.0000       0.253763         6.9052 
  28   0.0000       0.255595         6.9551 
  29   0.0000       0.260419         7.0864 
  30   0.0000       0.530790        14.4435 
  31   0.0000       0.537821        14.6349 
  32   0.0000       0.584720        15.9110 
  33   0.0000       0.586252        15.9527 
  34   0.0000       0.594734        16.1835 
  35   0.0000       0.643739        17.5170 
  36   0.0000       0.672077        18.2882 
  37   0.0000       0.674990        18.3674 
  38   0.0000       0.700218        19.0539 
  39   0.0000       0.769407        20.9366 
  40   0.0000       0.796611        21.6769 
  41   0.0000       0.868325        23.6283 
  42   0.0000       0.888384        24.1742 
  43   0.0000       0.895813        24.3763 
  44   0.0000       0.936054        25.4713 
  45   0.0000       0.952011        25.9055 
  46   0.0000       0.954576        25.9753 
  47   0.0000       0.992008        26.9939 
  48   0.0000       0.992776        27.0148 
  49   0.0000       0.993896        27.0453 
  50   0.0000       0.995227        27.0815 
  51   0.0000       1.055314        28.7166 
  52   0.0000       1.185083        32.2477 
  53   0.0000       1.384411        37.6717 
  54   0.0000       1.459339        39.7106 
  55   0.0000       1.678372        45.6708 

                    ********************************
                    * MULLIKEN POPULATION ANALYSIS *
                    ********************************

-----------------------
MULLIKEN ATOMIC CHARGES
-----------------------
   0 C :   -0.394776
   1 C :   -0.228069
   2 H :    0.127043
   3 H :    0.125205
   4 H :    0.128135
   5 C :   -0.228214
   6 H :    0.119775
   7 H :    0.122720
   8 C :   -0.394710
   9 H :    0.128174
  10 H :    0.125190
  11 H :    0.126982
  12 H :    0.119794
  13 H :    0.122752
Sum of atomic charges:   -0.0000000

--------------------------------
MULLIKEN REDUCED ORBITAL CHARGES
--------------------------------
  0 C s       :     3.329609  s :     3.329609
      pz      :     1.055589  p :     3.065167
      px      :     0.986743
      py      :     1.022836
  1 C s       :     3.301106  s :     3.301106
      pz      :     1.043328  p :     2.926963
      px      :     0.913898
      py      :     0.969737
  2 H s       :     0.872957  s :     0.872957
  3 H s       :     0.874795  s :     0.874795
  4 H s       :     0.871865  s :     0.871865
  5 C s       :     3.301154  s :     3.301154
      pz      :     1.043393  p :     2.927061
      px      :     0.913864
      py      :     0.969804
  6 H s       :     0.880225  s :     0.880225
  7 H s       :     0.877280  s :     0.877280
  8 C s       :     3.329610  s :     3.329610
      pz      :     1.055561  p :     3.065101
      px      :     0.986668
      py      :     1.022872
  9 H s       :     0.871826  s :     0.871826
 10 H s       :     0.874810  s :     0.874810
 11 H s       :     0.873018  s :     0.873018
 12 H s       :     0.880206  s :     0.880206
 13 H s       :     0.877248  s :     0.877248


                     *******************************
                     * LOEWDIN POPULATION ANALYSIS *
                     *******************************

----------------------
LOEWDIN ATOMIC CHARGES
----------------------
   0 C :   -0.311892
   1 C :   -0.193757
   2 H :    0.103131
   3 H :    0.103967
   4 H :    0.103418
   5 C :   -0.193789
   6 H :    0.097158
   7 H :    0.097980
   8 C :   -0.311881
   9 H :    0.103437
  10 H :    0.103951
  11 H :    0.103114
  12 H :    0.097188
  13 H :    0.097975

-------------------------------
LOEWDIN REDUCED ORBITAL CHARGES
-------------------------------
  0 C s       :     2.997171  s :     2.997171
      pz      :     1.122744  p :     3.314721
      px      :     1.083509
      py      :     1.108469
  1 C s       :     2.964904  s :     2.964904
      pz      :     1.106446  p :     3.228853
      px      :     1.043259
      py      :     1.079149
  2 H s       :     0.896869  s :     0.896869
  3 H s       :     0.896033  s :     0.896033
  4 H s       :     0.896582  s :     0.896582
  5 C s       :     2.964906  s :     2.964906
      pz      :     1.106470  p :     3.228883
      px      :     1.043245
      py      :     1.079169
  6 H s       :     0.902842  s :     0.902842
  7 H s       :     0.902020  s :     0.902020
  8 C s       :     2.997192  s :     2.997192
      pz      :     1.122725  p :     3.314689
      px      :     1.083476
      py      :     1.108488
  9 H s       :     0.896563  s :     0.896563
 10 H s       :     0.896049  s :     0.896049
 11 H s       :     0.896886  s :     0.896886
 12 H s       :     0.902812  s :     0.902812
 13 H s       :     0.902025  s :     0.902025


                      *****************************
                      * MAYER POPULATION ANALYSIS *
                      *****************************

  NA   - Mulliken gross atomic population
  ZA   - Total nuclear charge
  QA   - Mulliken gross atomic charge
  VA   - Mayer's total valence
  BVA  - Mayer's bonded valence
  FA   - Mayer's free valence

  ATOM       NA         ZA         QA         VA         BVA        FA
  0 C      6.3948     6.0000    -0.3948     3.8052     3.8052    -0.0000
  1 C      6.2281     6.0000    -0.2281     3.7722     3.7722     0.0000
  2 H      0.8730     1.0000     0.1270     0.9416     0.9416    -0.0000
  3 H      0.8748     1.0000     0.1252     0.9397     0.9397    -0.0000
  4 H      0.8719     1.0000     0.1281     0.9414     0.9414    -0.0000
  5 C      6.2282     6.0000    -0.2282     3.7723     3.7723     0.0000
  6 H      0.8802     1.0000     0.1198     0.9387     0.9387     0.0000
  7 H      0.8773     1.0000     0.1227     0.9379     0.9379    -0.0000
  8 C      6.3947     6.0000    -0.3947     3.8052     3.8052     0.0000
  9 H      0.8718     1.0000     0.1282     0.9414     0.9414     0.0000
 10 H      0.8748     1.0000     0.1252     0.9397     0.9397    -0.0000
 11 H      0.8730     1.0000     0.1270     0.9416     0.9416     0.0000
 12 H      0.8802     1.0000     0.1198     0.9386     0.9386     0.0000
 13 H      0.8772     1.0000     0.1228     0.9379     0.9379    -0.0000

  Mayer bond orders larger than 0.1
B(  0-C ,  1-C ) :   0.9676 B(  0-C ,  2-H ) :   0.9556 B(  0-C ,  3-H ) :   0.9553 
B(  0-C ,  4-H ) :   0.9555 B(  1-C ,  5-C ) :   0.9684 B(  1-C ,  6-H ) :   0.9482 
B(  1-C ,  7-H ) :   0.9479 B(  5-C ,  8-C ) :   0.9677 B(  5-C , 12-H ) :   0.9482 
B(  5-C , 13-H ) :   0.9479 B(  8-C ,  9-H ) :   0.9554 B(  8-C , 10-H ) :   0.9553 
B(  8-C , 11-H ) :   0.9556 

-------
TIMINGS
-------

Total SCF time: 0 days 0 hours 0 min 2 sec 

Total time                  ....       2.225 sec
Sum of individual times     ....       2.222 sec  ( 99.9%)

Fock matrix formation       ....       1.436 sec  ( 64.5%)
  Coulomb formation         ....       0.748 sec  ( 52.1% of F)
  XC integration            ....       0.688 sec  ( 47.9% of F)
    Basis function eval.    ....       0.442 sec  ( 64.3% of XC)
    Density eval.           ....       0.070 sec  ( 10.2% of XC)
    XC-Functional eval.     ....       0.074 sec  ( 10.8% of XC)
    XC-Potential eval.      ....       0.088 sec  ( 12.8% of XC)
Diagonalization             ....       0.001 sec  (  0.0%)
Density matrix formation    ....       0.000 sec  (  0.0%)
Population analysis         ....       0.001 sec  (  0.0%)
Initial guess               ....       0.000 sec  (  0.0%)
Orbital Transformation      ....       0.000 sec  (  0.0%)
Orbital Orthonormalization  ....       0.000 sec  (  0.0%)
DIIS solution               ....       0.000 sec  (  0.0%)
SOSCF solution              ....       0.001 sec  (  0.0%)
Grid generation             ....       0.783 sec  ( 35.2%)

-------------------------   --------------------
FINAL SINGLE POINT ENERGY      -158.294712122407
-------------------------   --------------------


                            ***************************************
                            *     ORCA property calculations      *
                            ***************************************

                                    ---------------------
                                    Active property flags
                                    ---------------------
   (+) Dipole Moment


------------------------------------------------------------------------------
                       ORCA ELECTRIC PROPERTIES CALCULATION
------------------------------------------------------------------------------

Dipole Moment Calculation                       ... on
Quadrupole Moment Calculation                   ... off
Polarizability Calculation                      ... off
GBWName                                         ... tmp/butane.gbw
Electron density file                           ... tmp/butane.scfp.tmp

-------------
DIPOLE MOMENT
-------------
                                X             Y             Z
Electronic contribution:     -0.00032       0.00048      -0.00478
Nuclear contribution   :      0.00023      -0.00047       0.00477
                        -----------------------------------------
Total Dipole Moment    :     -0.00009       0.00001      -0.00001
                        -----------------------------------------
Magnitude (a.u.)       :      0.00009
Magnitude (Debye)      :      0.00022

------------------------------------------------------------------------------
                      ORCA CHELPG CHARGES GENERATION
------------------------------------------------------------------------------

GBW file                           ... tmp/butane.gbw

Reading the GBW file               ... done

Grid spacing                       ...     0.300000
Point Cut-Off                      ...     2.800000
Van-der-Waals Radii                ...        COSMO
Total charge                       ...            0


Number of points X direction       ...           37
Number of points Y direction       ...           26
Number of points Z direction       ...           25
Maximum number of possible points  ...        24050
Final number of points             ...        10147


CHELPG Charges            
--------------------------------
  0   C   :      -0.358632
  1   C   :       0.142251
  2   H   :       0.076755
  3   H   :       0.086851
  4   H   :       0.078004
  5   C   :       0.143672
  6   H   :      -0.013395
  7   H   :      -0.012199
  8   C   :      -0.348511
  9   H   :       0.074383
 10   H   :       0.084236
 11   H   :       0.074329
 12   H   :      -0.014254
 13   H   :      -0.013491
--------------------------------
Total charge:    -0.000000
--------------------------------

CHELPG charges calculated...

Timings for individual parts in CHELPG calculation:
Grid generation                 ...        0.002 sec (=   0.000 min)
Potential calculation           ...        1.005 sec (=   0.017 min)
Fit to the potential            ...        0.009 sec (=   0.000 min)
------------------------------------------------------------------------------


Timings for individual modules:

Sum of individual times         ...        3.400 sec (=   0.057 min)
GTO integral calculation        ...        0.130 sec (=   0.002 min)   3.8 %
SCF iterations                  ...        2.234 sec (=   0.037 min)  65.7 %
CHELPG charge generation        ...        1.036 sec (=   0.017 min)  30.5 %
                             ****ORCA TERMINATED NORMALLY****
TOTAL RUN TIME: 0 days 0 hours 0 minutes 3 seconds 490 msec
