
                                 *****************
                                 * O   R   C   A *
                                 *****************

           --- An Ab Initio, DFT and Semiempirical electronic structure package ---

                  #######################################################
                  #                        -***-                        #
                  #  Department of molecular theory and spectroscopy    #
                  #              Directorship: Frank Neese              #
                  # Max Planck Institute for Chemical Energy Conversion #
                  #                  D-45470 Muelheim/Ruhr              #
                  #                       Germany                       #
                  #                                                     #
                  #                  All rights reserved                #
                  #                        -***-                        #
                  #######################################################


                         Program Version 3.0.3 - RELEASE   -


 With contributions from (in alphabetic order):
   Ute Becker             : Parallelization
   Dmytro Bykov           : SCF Hessian
   Dmitry Ganyushin       : Spin-Orbit,Spin-Spin,Magnetic field MRCI
   Andreas Hansen         : Spin unrestricted coupled pair/coupled cluster methods
   Dimitrios Liakos       : Extrapolation schemes; parallel MDCI
   Robert Izsak           : Overlap fitted RIJCOSX, COSX-SCS-MP3
   Christian Kollmar      : KDIIS, OOCD, Brueckner-CCSD(T), CCSD density
   Simone Kossmann        : Meta GGA functionals, TD-DFT gradient, OOMP2, MP2 Hessian
   Taras Petrenko         : DFT Hessian,TD-DFT gradient, ASA and ECA modules, normal mode analysis, Resonance Raman, ABS, FL, XAS/XES, NRVS
   Christoph Reimann      : Effective Core Potentials
   Michael Roemelt        : Restricted open shell CIS
   Christoph Riplinger    : Improved optimizer, TS searches, QM/MM, DLPNO-CCSD
   Barbara Sandhoefer     : DKH picture change effects
   Igor Schapiro          : Molecular dynamics
   Kantharuban Sivalingam : CASSCF convergence, NEVPT2
   Boris Wezisla          : Elementary symmetry handling
   Frank Wennmohs         : Technical directorship


 We gratefully acknowledge several colleagues who have allowed us to
 interface, adapt or use parts of their codes:
   Stefan Grimme, W. Hujo, H. Kruse, T. Risthaus : VdW corrections, initial TS optimization,
                                                   DFT functionals, gCP
   Ed Valeev                                     : LibInt (2-el integral package), F12 methods
   Garnet Chan, S. Sharma, R. Olivares           : DMRG
   Ulf Ekstrom                                   : XCFun DFT Library
   Mihaly Kallay                                 : mrcc  (arbitrary order and MRCC methods)
   Andreas Klamt, Michael Diedenhofen            : otool_cosmo (COSMO solvation model)
   Frank Weinhold                                : gennbo (NPA and NBO analysis)
   Christopher J. Cramer and Donald G. Truhlar   : smd solvation model


 Your calculation uses the libint2 library for the computation of 2-el integrals
 For citations please refer to: http://libint.valeyev.net

 This ORCA versions uses:
   CBLAS   interface :  Fast vector & matrix operations
   LAPACKE interface :  Fast linear algebra routines
   SCALAPACK package :  Parallel linear algebra routines


Your calculation utilizes the basis: 6-31G
Cite in your paper:
H - He: W.J. Hehre, R. Ditchfield and J.A. Pople, J. Chem. Phys. 56,
Li - Ne: 2257 (1972).  Note: Li and B come from J.D. Dill and J.A.
         Pople, J. Chem. Phys. 62, 2921 (1975).
Na - Ar: M.M. Francl, W.J. Pietro, W.J. Hehre, J.S. Binkley, M.S. Gordon,
         D.J. DeFrees and J.A. Pople, J. Chem. Phys. 77, 3654 (1982)
K  - Zn: V. Rassolov, J.A. Pople, M. Ratner and T.L. Windus, J. Chem. Phys.
         (accepted, 1998)
Note: He and Ne are unpublished basis sets taken from the Gaussian program

================================================================================
                                        WARNINGS
                       Please study these warnings very carefully!
================================================================================
Now building the actual basis set


INFO   : the flag for use of LIBINT has been found!

================================================================================
                                       INPUT FILE
================================================================================
NAME = tmp/etanol.inp
|  1> # ----------------------------------------------------------------
|  2> #            Orca input file - etanol                 
|  3> # ----------------------------------------------------------------
|  4> ! B3LYP
|  5> !  6-31G CHELPG 
|  6> * xyz   0   1  
|  7> C  -3.367800 2.090300 -0.105800 
|  8> C  -1.846200 2.164200 -0.127400 
|  9> O  -3.801700 1.203200 0.889000 
| 10> H  -3.759500 1.779500 -1.100600 
| 11> H  -3.779700 3.097700 0.114200 
| 12> H  -3.623300 0.287300 0.550300 
| 13> H  -1.419400 1.166300 -0.362600 
| 14> H  -1.468200 2.498400 0.861900 
| 15> H  -1.517200 2.887400 -0.903100 
| 16> *                                                                 
| 17> 
| 18>                          ****END OF INPUT****
================================================================================

                       ****************************
                       * Single Point Calculation *
                       ****************************

---------------------------------
CARTESIAN COORDINATES (ANGSTROEM)
---------------------------------
  C     -3.367800    2.090300   -0.105800
  C     -1.846200    2.164200   -0.127400
  O     -3.801700    1.203200    0.889000
  H     -3.759500    1.779500   -1.100600
  H     -3.779700    3.097700    0.114200
  H     -3.623300    0.287300    0.550300
  H     -1.419400    1.166300   -0.362600
  H     -1.468200    2.498400    0.861900
  H     -1.517200    2.887400   -0.903100

----------------------------
CARTESIAN COORDINATES (A.U.)
----------------------------
  NO LB      ZA    FRAG    MASS        X           Y           Z
   0 C     6.0000    0    12.011         -6.364219673819991          3.950094537735592         -0.199933024968868
   1 C     6.0000    0    12.011         -3.488812388445415          4.089745299032373         -0.240751109461567
   2 O     8.0000    0    15.999         -7.184171843328422          2.273718484334050          1.679966533055993
   3 H     1.0000    0     1.008         -7.104425400476946          3.362767655312867         -2.079832582993729
   4 H     1.0000    0     1.008         -7.142597868382155          5.853804645047862          0.215806724493807
   5 H     1.0000    0     1.008         -6.847044701036871          0.542918318275576          1.039916291496865
   6 H     1.0000    0     1.008         -2.682277274487824          2.203987589992356         -0.685214696159846
   7 H     1.0000    0     1.008         -2.774495909823182          4.721291772988855          1.628754954826727
   8 H     1.0000    0     1.008         -2.867092490385323          5.456395239084222         -1.706611671544283

--------------------------------
INTERNAL COORDINATES (ANGSTROEM)
--------------------------------
 C      0   0   0   0.000000     0.000     0.000
 C      1   0   0   1.523547     0.000     0.000
 O      1   2   0   1.401728   110.482     0.000
 H      1   2   3   1.113397   110.624   237.445
 H      1   2   3   1.110368   109.225   119.380
 H      3   1   2   0.992682   106.627   285.488
 H      2   1   3   1.110532   110.075    61.524
 H      2   1   3   1.110535   109.993   301.201
 H      2   1   3   1.110392   109.719   181.311

---------------------------
INTERNAL COORDINATES (A.U.)
---------------------------
 C      0   0   0   0.000000     0.000     0.000
 C      1   0   0   2.879086     0.000     0.000
 O      1   2   0   2.648883   110.482     0.000
 H      1   2   3   2.104015   110.624   237.445
 H      1   2   3   2.098291   109.225   119.380
 H      3   1   2   1.875897   106.627   285.488
 H      2   1   3   2.098602   110.075    61.524
 H      2   1   3   2.098607   109.993   301.201
 H      2   1   3   2.098336   109.719   181.311

---------------------
BASIS SET INFORMATION
---------------------
There are 3 groups of distinct atoms

 Group   1 Type C   : 10s4p contracted to 3s2p pattern {631/31}
 Group   2 Type O   : 10s4p contracted to 3s2p pattern {631/31}
 Group   3 Type H   : 4s contracted to 2s pattern {31}

Atom   0C    basis set group =>   1
Atom   1C    basis set group =>   1
Atom   2O    basis set group =>   2
Atom   3H    basis set group =>   3
Atom   4H    basis set group =>   3
Atom   5H    basis set group =>   3
Atom   6H    basis set group =>   3
Atom   7H    basis set group =>   3
Atom   8H    basis set group =>   3

Checking for AutoStart:
The File: tmp/etanol.gbw exists
Trying to determine its content:
     ... Fine, the file contains calculation information
     ... Fine, the calculation information was read
     ... Fine, the file contains a basis set
     ... Fine, the basis set was read
     ... Fine, the file contains a geometry
     ... Fine, the geometry was read
     ... Fine, the file contains a set of orbitals
     ... Fine, the orbitals can be read
     => possible old guess file was deleted
     => GBW file was renamed to GES file
     => GES file is set as startup file
     => Guess is set to MORead
     ... now leaving AutoStart

------------------------------------------------------------------------------
                           ORCA GTO INTEGRAL CALCULATION
------------------------------------------------------------------------------

                         BASIS SET STATISTICS AND STARTUP INFO

 # of primitive gaussian shells          ...   66
 # of primitive gaussian functions       ...   90
 # of contracted shell                   ...   27
 # of contracted basis functions         ...   39
 Highest angular momentum                ...    1
 Maximum contraction depth               ...    6
 Integral package used                   ... LIBINT
 Integral threshhold            Thresh   ...  1.000e-10
 Primitive cut-off              TCut     ...  1.000e-11


                              INTEGRAL EVALUATION

 One electron integrals                  ... done
 Pre-screening matrix                    ... done
 Shell pair data                         ... done (   0.000 sec)

-------------------------------------------------------------------------------
                                 ORCA SCF
-------------------------------------------------------------------------------

------------
SCF SETTINGS
------------
Hamiltonian:
 Density Functional     Method          .... DFT(GTOs)
 Exchange Functional    Exchange        .... B88
   X-Alpha parameter    XAlpha          ....  0.666667
   Becke's b parameter  XBeta           ....  0.004200
 Correlation Functional Correlation     .... LYP
 LDA part of GGA corr.  LDAOpt          .... VWN-5
 Gradients option       PostSCFGGA      .... off
 Hybrid DFT is turned on
   Fraction HF Exchange ScalHFX         ....  0.200000
   Scaling of DF-GGA-X  ScalDFX         ....  0.720000
   Scaling of DF-GGA-C  ScalDFC         ....  0.810000
   Scaling of DF-LDA-C  ScalLDAC        ....  1.000000
   Perturbative correction              ....  0.000000
   NL short-range parameter             ....  4.800000


General Settings:
 Integral files         IntName         .... tmp/etanol
 Hartree-Fock type      HFTyp           .... RHF
 Total Charge           Charge          ....    0
 Multiplicity           Mult            ....    1
 Number of Electrons    NEL             ....   26
 Basis Dimension        Dim             ....   39
 Nuclear Repulsion      ENuc            ....     81.7249562786 Eh

Convergence Acceleration:
 DIIS                   CNVDIIS         .... on
   Start iteration      DIISMaxIt       ....    12
   Startup error        DIISStart       ....  0.200000
   # of expansion vecs  DIISMaxEq       ....     5
   Bias factor          DIISBfac        ....   1.050
   Max. coefficient     DIISMaxC        ....  10.000
 Newton-Raphson         CNVNR           .... off
 SOSCF                  CNVSOSCF        .... on
   Start iteration      SOSCFMaxIt      ....   150
   Startup grad/error   SOSCFStart      ....  0.003300
 Level Shifting         CNVShift        .... on
   Level shift para.    LevelShift      ....    0.2500
   Turn off err/grad.   ShiftErr        ....    0.0010
 Zerner damping         CNVZerner       .... off
 Static damping         CNVDamp         .... on
   Fraction old density DampFac         ....    0.7000
   Max. Damping (<1)    DampMax         ....    0.9800
   Min. Damping (>=0)   DampMin         ....    0.0000
   Turn off err/grad.   DampErr         ....    0.1000
 Fernandez-Rico         CNVRico         .... off

SCF Procedure:
 Maximum # iterations   MaxIter         ....   125
 SCF integral mode      SCFMode         .... Direct
   Integral package                     .... LIBINT
 Reset frequeny         DirectResetFreq ....    20
 Integral Threshold     Thresh          ....  1.000e-10 Eh
 Primitive CutOff       TCut            ....  1.000e-11 Eh

Convergence Tolerance:
 Convergence Check Mode ConvCheckMode   .... Total+1el-Energy
 Energy Change          TolE            ....  1.000e-06 Eh
 1-El. energy change                    ....  1.000e-03 Eh
 Orbital Gradient       TolG            ....  5.000e-05
 Orbital Rotation angle TolX            ....  5.000e-05
 DIIS Error             TolErr          ....  1.000e-06


Diagonalization of the overlap matrix:
Smallest eigenvalue                        ... 8.151e-03
Time for diagonalization                   ...    0.000 sec
Threshold for overlap eigenvalues          ... 1.000e-08
Number of eigenvalues below threshold      ... 0
Time for construction of square roots      ...    0.000 sec
Total time needed                          ...    0.001 sec

---------------------
INITIAL GUESS: MOREAD
---------------------
Guess MOs are being read from file: tmp/etanol.ges
Input Geometry matches current geometry (good)
Input basis set matches current basis set (good)
MOs were renormalized
MOs were reorthogonalized (Cholesky)
                      ------------------
                      INITIAL GUESS DONE (   0.0 sec)
                      ------------------
-------------------
DFT GRID GENERATION
-------------------

General Integration Accuracy     IntAcc      ...  4.340
Radial Grid Type                 RadialGrid  ... Gauss-Chebyshev
Angular Grid (max. acc.)         AngularGrid ... Lebedev-110
Angular grid pruning method      GridPruning ... 3 (G Style)
Weight generation scheme         WeightScheme... Becke
Basis function cutoff            BFCut       ...    1.0000e-10
Integration weight cutoff        WCut        ...    1.0000e-14
Grids for H and He will be reduced by one unit

# of grid points (after initial pruning)     ...   9792 (   0.0 sec)
# of grid points (after weights+screening)   ...   9350 (   0.0 sec)
nearest neighbour list constructed           ...    0.0 sec
Grid point re-assignment to atoms done       ...    0.0 sec
Grid point division into batches done        ...    0.0 sec
Reduced shell lists constructed in    0.1 sec

Total number of grid points                  ...     9350
Total number of batches                      ...      151
Average number of points per batch           ...       61
Average number of grid points per atom       ...     1039
Average number of shells per batch           ...    23.04 (85.33%)
Average number of basis functions per batch  ...    33.99 (87.15%)
Average number of large shells per batch     ...    20.08 (87.15%)
Average number of large basis fcns per batch ...    30.24 (88.97%)
Maximum spatial batch extension              ...  20.42, 18.69, 21.39 au
Average spatial batch extension              ...   4.52,  4.02,  4.28 au

Time for grid setup =    0.065 sec

--------------
SCF ITERATIONS
--------------
ITER       Energy         Delta-E        Max-DP      RMS-DP      [F,P]     Damp
               ***  Starting incremental Fock matrix formation  ***
                      *** Initiating the SOSCF procedure ***
                      *** Re-Reading the Fockian *** 
                      *** Removing any level shift *** 
ITER      Energy       Delta-E        Grad      Rot      Max-DP    RMS-DP
  0   -154.89031955 -154.8903195522  0.000004  0.000004  0.000014  0.000001
               *** Restarting incremental Fock matrix formation ***
                 **** Energy Check signals convergence ****
              ***Rediagonalizing the Fockian in SOSCF/NRSCF***

               *****************************************************
               *                     SUCCESS                       *
               *           SCF CONVERGED AFTER   1 CYCLES          *
               *****************************************************

Setting up the final grid:

General Integration Accuracy     IntAcc      ...  4.670
Radial Grid Type                 RadialGrid  ... Gauss-Chebyshev
Angular Grid (max. acc.)         AngularGrid ... Lebedev-302
Angular grid pruning method      GridPruning ... 3 (G Style)
Weight generation scheme         WeightScheme... Becke
Basis function cutoff            BFCut       ...    1.0000e-10
Integration weight cutoff        WCut        ...    1.0000e-14
Grids for H and He will be reduced by one unit

# of grid points (after initial pruning)     ...  39000 (   0.0 sec)
# of grid points (after weights+screening)   ...  36929 (   0.0 sec)
nearest neighbour list constructed           ...    0.0 sec
Grid point re-assignment to atoms done       ...    0.0 sec
Grid point division into batches done        ...    0.1 sec
Reduced shell lists constructed in    0.3 sec

Total number of grid points                  ...    36929
Total number of batches                      ...      580
Average number of points per batch           ...       63
Average number of grid points per atom       ...     4103
Average number of shells per batch           ...    21.18 (78.46%)
Average number of basis functions per batch  ...    31.43 (80.59%)
Average number of large shells per batch     ...    18.08 (85.37%)
Average number of large basis fcns per batch ...    27.37 (87.08%)
Maximum spatial batch extension              ...  18.46, 17.93, 18.89 au
Average spatial batch extension              ...   2.83,  2.72,  2.80 au

Final grid set up in    0.3 sec
Final integration                            ... done (   0.2 sec)
Change in XC energy                          ...    -0.000448514
Integrated number of electrons               ...    26.000037517
Previous integrated no of electrons          ...    25.997215995

----------------
TOTAL SCF ENERGY
----------------

Total Energy       :         -154.89076807 Eh           -4214.79207 eV

Components:
Nuclear Repulsion  :           81.72495628 Eh            2223.84912 eV
Electronic Energy  :         -236.61572434 Eh           -6438.64119 eV

One Electron Energy:         -371.51504626 Eh          -10109.43836 eV
Two Electron Energy:          134.89932192 Eh            3670.79717 eV

Virial components:
Potential Energy   :         -309.02371665 Eh           -8408.96283 eV
Kinetic Energy     :          154.13294859 Eh            4194.17076 eV
Virial Ratio       :            2.00491666


DFT components:
N(Alpha)           :       13.000018758733 electrons
N(Beta)            :       13.000018758733 electrons
N(Total)           :       26.000037517466 electrons
E(X)               :      -16.441708871619 Eh       
E(C)               :       -1.005916345589 Eh       
E(XC)              :      -17.447625217208 Eh       

---------------
SCF CONVERGENCE
---------------

  Last Energy change         ...   -1.4285e-10  Tolerance :   1.0000e-06
  Last MAX-Density change    ...    1.2735e-05  Tolerance :   1.0000e-05
  Last RMS-Density change    ...    1.1391e-06  Tolerance :   1.0000e-06
  Last Orbital Gradient      ...    3.1257e-06  Tolerance :   5.0000e-05
  Last Orbital Rotation      ...    4.7193e-06  Tolerance :   5.0000e-05

             **** THE GBW FILE WAS UPDATED (tmp/etanol.gbw) ****
             **** DENSITY FILE WAS UPDATED (tmp/etanol.scfp.tmp) ****
             **** ENERGY FILE WAS UPDATED (tmp/etanol.en.tmp) ****
----------------
ORBITAL ENERGIES
----------------

  NO   OCC          E(Eh)            E(eV) 
   0   2.0000     -19.133622      -520.6523 
   1   2.0000     -10.225130      -278.2399 
   2   2.0000     -10.171351      -276.7765 
   3   2.0000      -1.026151       -27.9230 
   4   2.0000      -0.742256       -20.1978 
   5   2.0000      -0.616225       -16.7683 
   6   2.0000      -0.504032       -13.7154 
   7   2.0000      -0.451318       -12.2810 
   8   2.0000      -0.419670       -11.4198 
   9   2.0000      -0.378828       -10.3084 
  10   2.0000      -0.364844        -9.9279 
  11   2.0000      -0.309390        -8.4189 
  12   2.0000      -0.258208        -7.0262 
  13   0.0000       0.064171         1.7462 
  14   0.0000       0.118837         3.2337 
  15   0.0000       0.145634         3.9629 
  16   0.0000       0.153907         4.1880 
  17   0.0000       0.166406         4.5281 
  18   0.0000       0.187668         5.1067 
  19   0.0000       0.233400         6.3511 
  20   0.0000       0.242648         6.6028 
  21   0.0000       0.554248        15.0818 
  22   0.0000       0.579967        15.7817 
  23   0.0000       0.586218        15.9518 
  24   0.0000       0.612688        16.6721 
  25   0.0000       0.668720        18.1968 
  26   0.0000       0.699148        19.0248 
  27   0.0000       0.826064        22.4784 
  28   0.0000       0.869821        23.6690 
  29   0.0000       0.889868        24.2145 
  30   0.0000       0.923713        25.1355 
  31   0.0000       0.941176        25.6107 
  32   0.0000       0.952529        25.9196 
  33   0.0000       1.032342        28.0915 
  34   0.0000       1.066472        29.0202 
  35   0.0000       1.080370        29.3984 
  36   0.0000       1.209463        32.9112 
  37   0.0000       1.481790        40.3216 
  38   0.0000       1.788133        48.6576 

                    ********************************
                    * MULLIKEN POPULATION ANALYSIS *
                    ********************************

-----------------------
MULLIKEN ATOMIC CHARGES
-----------------------
   0 C :   -0.027200
   1 C :   -0.395078
   2 O :   -0.587241
   3 H :    0.112685
   4 H :    0.148255
   5 H :    0.351946
   6 H :    0.119324
   7 H :    0.151882
   8 H :    0.125426
Sum of atomic charges:   -0.0000000

--------------------------------
MULLIKEN REDUCED ORBITAL CHARGES
--------------------------------
  0 C s       :     3.253173  s :     3.253173
      pz      :     0.867255  p :     2.774027
      px      :     0.941042
      py      :     0.965730
  1 C s       :     3.327700  s :     3.327700
      pz      :     1.074047  p :     3.067379
      px      :     0.942731
      py      :     1.050600
  2 O s       :     3.913941  s :     3.913941
      pz      :     1.596418  p :     4.673300
      px      :     1.869611
      py      :     1.207271
  3 H s       :     0.887315  s :     0.887315
  4 H s       :     0.851745  s :     0.851745
  5 H s       :     0.648054  s :     0.648054
  6 H s       :     0.880676  s :     0.880676
  7 H s       :     0.848118  s :     0.848118
  8 H s       :     0.874574  s :     0.874574


                     *******************************
                     * LOEWDIN POPULATION ANALYSIS *
                     *******************************

----------------------
LOEWDIN ATOMIC CHARGES
----------------------
   0 C :   -0.039108
   1 C :   -0.335989
   2 O :   -0.412537
   3 H :    0.078113
   4 H :    0.104960
   5 H :    0.279136
   6 H :    0.100044
   7 H :    0.117085
   8 H :    0.108295

-------------------------------
LOEWDIN REDUCED ORBITAL CHARGES
-------------------------------
  0 C s       :     2.962639  s :     2.962639
      pz      :     0.983805  p :     3.076469
      px      :     1.059333
      py      :     1.033331
  1 C s       :     3.011579  s :     3.011579
      pz      :     1.130788  p :     3.324410
      px      :     1.073591
      py      :     1.120032
  2 O s       :     3.610541  s :     3.610541
      pz      :     1.652681  p :     4.801995
      px      :     1.879149
      py      :     1.270166
  3 H s       :     0.921887  s :     0.921887
  4 H s       :     0.895040  s :     0.895040
  5 H s       :     0.720864  s :     0.720864
  6 H s       :     0.899956  s :     0.899956
  7 H s       :     0.882915  s :     0.882915
  8 H s       :     0.891705  s :     0.891705


                      *****************************
                      * MAYER POPULATION ANALYSIS *
                      *****************************

  NA   - Mulliken gross atomic population
  ZA   - Total nuclear charge
  QA   - Mulliken gross atomic charge
  VA   - Mayer's total valence
  BVA  - Mayer's bonded valence
  FA   - Mayer's free valence

  ATOM       NA         ZA         QA         VA         BVA        FA
  0 C      6.0272     6.0000    -0.0272     3.6977     3.6977     0.0000
  1 C      6.3951     6.0000    -0.3951     3.7660     3.7660    -0.0000
  2 O      8.5872     8.0000    -0.5872     1.7315     1.7315     0.0000
  3 H      0.8873     1.0000     0.1127     0.9294     0.9294     0.0000
  4 H      0.8517     1.0000     0.1483     0.9308     0.9308    -0.0000
  5 H      0.6481     1.0000     0.3519     0.8370     0.8370    -0.0000
  6 H      0.8807     1.0000     0.1193     0.9456     0.9456    -0.0000
  7 H      0.8481     1.0000     0.1519     0.9391     0.9391    -0.0000
  8 H      0.8746     1.0000     0.1254     0.9422     0.9422     0.0000

  Mayer bond orders larger than 0.1
B(  0-C ,  1-C ) :   0.9467 B(  0-C ,  2-O ) :   0.8877 B(  0-C ,  3-H ) :   0.9356 
B(  0-C ,  4-H ) :   0.9419 B(  1-C ,  6-H ) :   0.9558 B(  1-C ,  7-H ) :   0.9512 
B(  1-C ,  8-H ) :   0.9416 B(  2-O ,  5-H ) :   0.8140 

-------
TIMINGS
-------

Total SCF time: 0 days 0 hours 0 min 1 sec 

Total time                  ....       1.034 sec
Sum of individual times     ....       1.032 sec  ( 99.8%)

Fock matrix formation       ....       0.648 sec  ( 62.7%)
  Coulomb formation         ....       0.298 sec  ( 46.0% of F)
  XC integration            ....       0.350 sec  ( 54.0% of F)
    Basis function eval.    ....       0.233 sec  ( 66.6% of XC)
    Density eval.           ....       0.030 sec  (  8.4% of XC)
    XC-Functional eval.     ....       0.047 sec  ( 13.4% of XC)
    XC-Potential eval.      ....       0.034 sec  (  9.7% of XC)
Diagonalization             ....       0.000 sec  (  0.0%)
Density matrix formation    ....       0.000 sec  (  0.0%)
Population analysis         ....       0.000 sec  (  0.0%)
Initial guess               ....       0.000 sec  (  0.0%)
Orbital Transformation      ....       0.000 sec  (  0.0%)
Orbital Orthonormalization  ....       0.000 sec  (  0.0%)
DIIS solution               ....       0.000 sec  (  0.0%)
SOSCF solution              ....       0.001 sec  (  0.1%)
Grid generation             ....       0.382 sec  ( 36.9%)

-------------------------   --------------------
FINAL SINGLE POINT ENERGY      -154.890768066329
-------------------------   --------------------


                            ***************************************
                            *     ORCA property calculations      *
                            ***************************************

                                    ---------------------
                                    Active property flags
                                    ---------------------
   (+) Dipole Moment


------------------------------------------------------------------------------
                       ORCA ELECTRIC PROPERTIES CALCULATION
------------------------------------------------------------------------------

Dipole Moment Calculation                       ... on
Quadrupole Moment Calculation                   ... off
Polarizability Calculation                      ... off
GBWName                                         ... tmp/etanol.gbw
Electron density file                           ... tmp/etanol.scfp.tmp

-------------
DIPOLE MOMENT
-------------
                                X             Y             Z
Electronic contribution:     -2.05956      -1.15963       1.41234
Nuclear contribution   :      2.38482       0.94459      -2.07042
                        -----------------------------------------
Total Dipole Moment    :      0.32526      -0.21504      -0.65807
                        -----------------------------------------
Magnitude (a.u.)       :      0.76492
Magnitude (Debye)      :      1.94427

------------------------------------------------------------------------------
                      ORCA CHELPG CHARGES GENERATION
------------------------------------------------------------------------------

GBW file                           ... tmp/etanol.gbw

Reading the GBW file               ... done

Grid spacing                       ...     0.300000
Point Cut-Off                      ...     2.800000
Van-der-Waals Radii                ...        COSMO
Total charge                       ...            0


Number of points X direction       ...           26
Number of points Y direction       ...           28
Number of points Z direction       ...           25
Maximum number of possible points  ...        18200
Final number of points             ...         7586


CHELPG Charges            
--------------------------------
  0   C   :       0.480730
  1   C   :      -0.358881
  2   O   :      -0.748499
  3   H   :      -0.061988
  4   H   :       0.000343
  5   H   :       0.437001
  6   H   :       0.081323
  7   H   :       0.110692
  8   H   :       0.059280
--------------------------------
Total charge:    -0.000000
--------------------------------

CHELPG charges calculated...

Timings for individual parts in CHELPG calculation:
Grid generation                 ...        0.001 sec (=   0.000 min)
Potential calculation           ...        0.435 sec (=   0.007 min)
Fit to the potential            ...        0.003 sec (=   0.000 min)
------------------------------------------------------------------------------


Timings for individual modules:

Sum of individual times         ...        1.618 sec (=   0.027 min)
GTO integral calculation        ...        0.122 sec (=   0.002 min)   7.5 %
SCF iterations                  ...        1.043 sec (=   0.017 min)  64.4 %
CHELPG charge generation        ...        0.454 sec (=   0.008 min)  28.1 %
                             ****ORCA TERMINATED NORMALLY****
TOTAL RUN TIME: 0 days 0 hours 0 minutes 1 seconds 698 msec
