
                                 *****************
                                 * O   R   C   A *
                                 *****************

           --- An Ab Initio, DFT and Semiempirical electronic structure package ---

                  #######################################################
                  #                        -***-                        #
                  #  Department of molecular theory and spectroscopy    #
                  #              Directorship: Frank Neese              #
                  # Max Planck Institute for Chemical Energy Conversion #
                  #                  D-45470 Muelheim/Ruhr              #
                  #                       Germany                       #
                  #                                                     #
                  #                  All rights reserved                #
                  #                        -***-                        #
                  #######################################################


                         Program Version 3.0.3 - RELEASE   -


 With contributions from (in alphabetic order):
   Ute Becker             : Parallelization
   Dmytro Bykov           : SCF Hessian
   Dmitry Ganyushin       : Spin-Orbit,Spin-Spin,Magnetic field MRCI
   Andreas Hansen         : Spin unrestricted coupled pair/coupled cluster methods
   Dimitrios Liakos       : Extrapolation schemes; parallel MDCI
   Robert Izsak           : Overlap fitted RIJCOSX, COSX-SCS-MP3
   Christian Kollmar      : KDIIS, OOCD, Brueckner-CCSD(T), CCSD density
   Simone Kossmann        : Meta GGA functionals, TD-DFT gradient, OOMP2, MP2 Hessian
   Taras Petrenko         : DFT Hessian,TD-DFT gradient, ASA and ECA modules, normal mode analysis, Resonance Raman, ABS, FL, XAS/XES, NRVS
   Christoph Reimann      : Effective Core Potentials
   Michael Roemelt        : Restricted open shell CIS
   Christoph Riplinger    : Improved optimizer, TS searches, QM/MM, DLPNO-CCSD
   Barbara Sandhoefer     : DKH picture change effects
   Igor Schapiro          : Molecular dynamics
   Kantharuban Sivalingam : CASSCF convergence, NEVPT2
   Boris Wezisla          : Elementary symmetry handling
   Frank Wennmohs         : Technical directorship


 We gratefully acknowledge several colleagues who have allowed us to
 interface, adapt or use parts of their codes:
   Stefan Grimme, W. Hujo, H. Kruse, T. Risthaus : VdW corrections, initial TS optimization,
                                                   DFT functionals, gCP
   Ed Valeev                                     : LibInt (2-el integral package), F12 methods
   Garnet Chan, S. Sharma, R. Olivares           : DMRG
   Ulf Ekstrom                                   : XCFun DFT Library
   Mihaly Kallay                                 : mrcc  (arbitrary order and MRCC methods)
   Andreas Klamt, Michael Diedenhofen            : otool_cosmo (COSMO solvation model)
   Frank Weinhold                                : gennbo (NPA and NBO analysis)
   Christopher J. Cramer and Donald G. Truhlar   : smd solvation model


 Your calculation uses the libint2 library for the computation of 2-el integrals
 For citations please refer to: http://libint.valeyev.net

 This ORCA versions uses:
   CBLAS   interface :  Fast vector & matrix operations
   LAPACKE interface :  Fast linear algebra routines
   SCALAPACK package :  Parallel linear algebra routines


Your calculation utilizes the basis: 6-31G
Cite in your paper:
H - He: W.J. Hehre, R. Ditchfield and J.A. Pople, J. Chem. Phys. 56,
Li - Ne: 2257 (1972).  Note: Li and B come from J.D. Dill and J.A.
         Pople, J. Chem. Phys. 62, 2921 (1975).
Na - Ar: M.M. Francl, W.J. Pietro, W.J. Hehre, J.S. Binkley, M.S. Gordon,
         D.J. DeFrees and J.A. Pople, J. Chem. Phys. 77, 3654 (1982)
K  - Zn: V. Rassolov, J.A. Pople, M. Ratner and T.L. Windus, J. Chem. Phys.
         (accepted, 1998)
Note: He and Ne are unpublished basis sets taken from the Gaussian program

================================================================================
                                        WARNINGS
                       Please study these warnings very carefully!
================================================================================
Now building the actual basis set


INFO   : the flag for use of LIBINT has been found!

================================================================================
                                       INPUT FILE
================================================================================
NAME = tmp/etane.inp
|  1> # ----------------------------------------------------------------
|  2> #            Orca input file - etane                 
|  3> # ----------------------------------------------------------------
|  4> ! B3LYP
|  5> !  6-31G CHELPG 
|  6> * xyz   0   1  
|  7> C  -3.183100 2.154500 -0.151900 
|  8> H  -2.072800 2.159200 -0.156700 
|  9> C  -3.689500 1.156700 0.875500 
| 10> H  -3.550100 1.874200 -1.161700 
| 11> H  -3.550100 3.172100 0.098900 
| 12> H  -3.322600 0.139100 0.624800 
| 13> H  -4.799900 1.152000 0.880400 
| 14> H  -3.322600 1.437100 1.885300 
| 15> *                                                                 
| 16> 
| 17>                          ****END OF INPUT****
================================================================================

                       ****************************
                       * Single Point Calculation *
                       ****************************

---------------------------------
CARTESIAN COORDINATES (ANGSTROEM)
---------------------------------
  C     -3.183100    2.154500   -0.151900
  H     -2.072800    2.159200   -0.156700
  C     -3.689500    1.156700    0.875500
  H     -3.550100    1.874200   -1.161700
  H     -3.550100    3.172100    0.098900
  H     -3.322600    0.139100    0.624800
  H     -4.799900    1.152000    0.880400
  H     -3.322600    1.437100    1.885300

----------------------------
CARTESIAN COORDINATES (A.U.)
----------------------------
  NO LB      ZA    FRAG    MASS        X           Y           Z
   0 C     6.0000    0    12.011         -6.015187256884737          4.071414955533337         -0.287049399742638
   1 H     1.0000    0     1.008         -3.917024330391970          4.080296668362767         -0.296120085185460
   2 C     6.0000    0    12.011         -6.972144571102458          2.185846219106712          1.654455230248056
   3 H     1.0000    0     1.008         -6.708716748033836          3.541724720195210         -2.195294849776318
   4 H     1.0000    0     1.008         -6.708716748033836          5.994400269411602          0.186893914644812
   5 H     1.0000    0     1.008         -6.278804052566751          0.262860905228446          1.180700888473998
   6 H     1.0000    0     1.008         -9.070496470208615          2.176964506277282          1.663714888304270
   7 H     1.0000    0     1.008         -6.278804052566751          2.715725427058231          3.562700680281736

--------------------------------
INTERNAL COORDINATES (ANGSTROEM)
--------------------------------
 C      0   0   0   0.000000     0.000     0.000
 H      1   0   0   1.110320     0.000     0.000
 C      1   2   0   1.519078   109.820     0.000
 H      1   2   3   1.110384   109.126   239.571
 H      1   2   3   1.110450   109.122   120.421
 H      3   1   2   1.110394   109.822   299.998
 H      3   1   2   1.110421   109.823   179.996
 H      3   1   2   1.110376   109.819    60.000

---------------------------
INTERNAL COORDINATES (A.U.)
---------------------------
 C      0   0   0   0.000000     0.000     0.000
 H      1   0   0   2.098201     0.000     0.000
 C      1   2   0   2.870641   109.820     0.000
 H      1   2   3   2.098322   109.126   239.571
 H      1   2   3   2.098447   109.122   120.421
 H      3   1   2   2.098341   109.822   299.998
 H      3   1   2   2.098391   109.823   179.996
 H      3   1   2   2.098307   109.819    60.000

---------------------
BASIS SET INFORMATION
---------------------
There are 2 groups of distinct atoms

 Group   1 Type C   : 10s4p contracted to 3s2p pattern {631/31}
 Group   2 Type H   : 4s contracted to 2s pattern {31}

Atom   0C    basis set group =>   1
Atom   1H    basis set group =>   2
Atom   2C    basis set group =>   1
Atom   3H    basis set group =>   2
Atom   4H    basis set group =>   2
Atom   5H    basis set group =>   2
Atom   6H    basis set group =>   2
Atom   7H    basis set group =>   2

Checking for AutoStart:
The File: tmp/etane.gbw exists
Trying to determine its content:
     ... Fine, the file contains calculation information
     ... Fine, the calculation information was read
     ... Fine, the file contains a basis set
     ... Fine, the basis set was read
     ... Fine, the file contains a geometry
     ... Fine, the geometry was read
     ... Fine, the file contains a set of orbitals
     ... Fine, the orbitals can be read
     => possible old guess file was deleted
     => GBW file was renamed to GES file
     => GES file is set as startup file
     => Guess is set to MORead
     ... now leaving AutoStart

------------------------------------------------------------------------------
                           ORCA GTO INTEGRAL CALCULATION
------------------------------------------------------------------------------

                         BASIS SET STATISTICS AND STARTUP INFO

 # of primitive gaussian shells          ...   52
 # of primitive gaussian functions       ...   68
 # of contracted shell                   ...   22
 # of contracted basis functions         ...   30
 Highest angular momentum                ...    1
 Maximum contraction depth               ...    6
 Integral package used                   ... LIBINT
 Integral threshhold            Thresh   ...  1.000e-10
 Primitive cut-off              TCut     ...  1.000e-11


                              INTEGRAL EVALUATION

 One electron integrals                  ... done
 Pre-screening matrix                    ... done
 Shell pair data                         ... done (   0.000 sec)

-------------------------------------------------------------------------------
                                 ORCA SCF
-------------------------------------------------------------------------------

------------
SCF SETTINGS
------------
Hamiltonian:
 Density Functional     Method          .... DFT(GTOs)
 Exchange Functional    Exchange        .... B88
   X-Alpha parameter    XAlpha          ....  0.666667
   Becke's b parameter  XBeta           ....  0.004200
 Correlation Functional Correlation     .... LYP
 LDA part of GGA corr.  LDAOpt          .... VWN-5
 Gradients option       PostSCFGGA      .... off
 Hybrid DFT is turned on
   Fraction HF Exchange ScalHFX         ....  0.200000
   Scaling of DF-GGA-X  ScalDFX         ....  0.720000
   Scaling of DF-GGA-C  ScalDFC         ....  0.810000
   Scaling of DF-LDA-C  ScalLDAC        ....  1.000000
   Perturbative correction              ....  0.000000
   NL short-range parameter             ....  4.800000


General Settings:
 Integral files         IntName         .... tmp/etane
 Hartree-Fock type      HFTyp           .... RHF
 Total Charge           Charge          ....    0
 Multiplicity           Mult            ....    1
 Number of Electrons    NEL             ....   18
 Basis Dimension        Dim             ....   30
 Nuclear Repulsion      ENuc            ....     42.0379294075 Eh

Convergence Acceleration:
 DIIS                   CNVDIIS         .... on
   Start iteration      DIISMaxIt       ....    12
   Startup error        DIISStart       ....  0.200000
   # of expansion vecs  DIISMaxEq       ....     5
   Bias factor          DIISBfac        ....   1.050
   Max. coefficient     DIISMaxC        ....  10.000
 Newton-Raphson         CNVNR           .... off
 SOSCF                  CNVSOSCF        .... on
   Start iteration      SOSCFMaxIt      ....   150
   Startup grad/error   SOSCFStart      ....  0.003300
 Level Shifting         CNVShift        .... on
   Level shift para.    LevelShift      ....    0.2500
   Turn off err/grad.   ShiftErr        ....    0.0010
 Zerner damping         CNVZerner       .... off
 Static damping         CNVDamp         .... on
   Fraction old density DampFac         ....    0.7000
   Max. Damping (<1)    DampMax         ....    0.9800
   Min. Damping (>=0)   DampMin         ....    0.0000
   Turn off err/grad.   DampErr         ....    0.1000
 Fernandez-Rico         CNVRico         .... off

SCF Procedure:
 Maximum # iterations   MaxIter         ....   125
 SCF integral mode      SCFMode         .... Direct
   Integral package                     .... LIBINT
 Reset frequeny         DirectResetFreq ....    20
 Integral Threshold     Thresh          ....  1.000e-10 Eh
 Primitive CutOff       TCut            ....  1.000e-11 Eh

Convergence Tolerance:
 Convergence Check Mode ConvCheckMode   .... Total+1el-Energy
 Energy Change          TolE            ....  1.000e-06 Eh
 1-El. energy change                    ....  1.000e-03 Eh
 Orbital Gradient       TolG            ....  5.000e-05
 Orbital Rotation angle TolX            ....  5.000e-05
 DIIS Error             TolErr          ....  1.000e-06


Diagonalization of the overlap matrix:
Smallest eigenvalue                        ... 9.807e-03
Time for diagonalization                   ...    0.000 sec
Threshold for overlap eigenvalues          ... 1.000e-08
Number of eigenvalues below threshold      ... 0
Time for construction of square roots      ...    0.000 sec
Total time needed                          ...    0.000 sec

---------------------
INITIAL GUESS: MOREAD
---------------------
Guess MOs are being read from file: tmp/etane.ges
Input Geometry matches current geometry (good)
Input basis set matches current basis set (good)
MOs were renormalized
MOs were reorthogonalized (Cholesky)
                      ------------------
                      INITIAL GUESS DONE (   0.0 sec)
                      ------------------
-------------------
DFT GRID GENERATION
-------------------

General Integration Accuracy     IntAcc      ...  4.340
Radial Grid Type                 RadialGrid  ... Gauss-Chebyshev
Angular Grid (max. acc.)         AngularGrid ... Lebedev-110
Angular grid pruning method      GridPruning ... 3 (G Style)
Weight generation scheme         WeightScheme... Becke
Basis function cutoff            BFCut       ...    1.0000e-10
Integration weight cutoff        WCut        ...    1.0000e-14
Grids for H and He will be reduced by one unit

# of grid points (after initial pruning)     ...   8076 (   0.0 sec)
# of grid points (after weights+screening)   ...   7708 (   0.0 sec)
nearest neighbour list constructed           ...    0.0 sec
Grid point re-assignment to atoms done       ...    0.0 sec
Grid point division into batches done        ...    0.0 sec
Reduced shell lists constructed in    0.0 sec

Total number of grid points                  ...     7708
Total number of batches                      ...      124
Average number of points per batch           ...       62
Average number of grid points per atom       ...      964
Average number of shells per batch           ...    19.81 (90.04%)
Average number of basis functions per batch  ...    27.44 (91.47%)
Average number of large shells per batch     ...    17.65 (89.10%)
Average number of large basis fcns per batch ...    24.94 (90.90%)
Maximum spatial batch extension              ...  20.92, 25.60, 23.66 au
Average spatial batch extension              ...   4.59,  4.61,  4.59 au

Time for grid setup =    0.044 sec

--------------
SCF ITERATIONS
--------------
ITER       Energy         Delta-E        Max-DP      RMS-DP      [F,P]     Damp
               ***  Starting incremental Fock matrix formation  ***
                      *** Initiating the SOSCF procedure ***
                      *** Re-Reading the Fockian *** 
                      *** Removing any level shift *** 
ITER      Energy       Delta-E        Grad      Rot      Max-DP    RMS-DP
  0    -79.74613140 -79.7461314029  0.000000  0.000000  0.000000  0.000000
               *** Restarting incremental Fock matrix formation ***
                 **** Energy Check signals convergence ****
              ***Rediagonalizing the Fockian in SOSCF/NRSCF***

               *****************************************************
               *                     SUCCESS                       *
               *           SCF CONVERGED AFTER   1 CYCLES          *
               *****************************************************

Setting up the final grid:

General Integration Accuracy     IntAcc      ...  4.670
Radial Grid Type                 RadialGrid  ... Gauss-Chebyshev
Angular Grid (max. acc.)         AngularGrid ... Lebedev-302
Angular grid pruning method      GridPruning ... 3 (G Style)
Weight generation scheme         WeightScheme... Becke
Basis function cutoff            BFCut       ...    1.0000e-10
Integration weight cutoff        WCut        ...    1.0000e-14
Grids for H and He will be reduced by one unit

# of grid points (after initial pruning)     ...  32788 (   0.0 sec)
# of grid points (after weights+screening)   ...  31296 (   0.0 sec)
nearest neighbour list constructed           ...    0.0 sec
Grid point re-assignment to atoms done       ...    0.0 sec
Grid point division into batches done        ...    0.1 sec
Reduced shell lists constructed in    0.2 sec

Total number of grid points                  ...    31296
Total number of batches                      ...      494
Average number of points per batch           ...       63
Average number of grid points per atom       ...     3912
Average number of shells per batch           ...    18.18 (82.65%)
Average number of basis functions per batch  ...    25.29 (84.30%)
Average number of large shells per batch     ...    16.00 (87.97%)
Average number of large basis fcns per batch ...    22.76 (90.01%)
Maximum spatial batch extension              ...  20.64, 20.64, 20.64 au
Average spatial batch extension              ...   2.97,  2.93,  2.93 au

Final grid set up in    0.2 sec
Final integration                            ... done (   0.2 sec)
Change in XC energy                          ...     0.000267931
Integrated number of electrons               ...    18.000007790
Previous integrated no of electrons          ...    18.001971863

----------------
TOTAL SCF ENERGY
----------------

Total Energy       :          -79.74586347 Eh           -2169.99527 eV

Components:
Nuclear Repulsion  :           42.03792941 Eh            1143.91021 eV
Electronic Energy  :         -121.78379288 Eh           -3313.90548 eV

One Electron Energy:         -188.88285295 Eh           -5139.76373 eV
Two Electron Energy:           67.09906007 Eh            1825.85825 eV

Virial components:
Potential Energy   :         -158.97568359 Eh           -4325.94828 eV
Kinetic Energy     :           79.22982012 Eh            2155.95301 eV
Virial Ratio       :            2.00651325


DFT components:
N(Alpha)           :        9.000003895086 electrons
N(Beta)            :        9.000003895086 electrons
N(Total)           :       18.000007790172 electrons
E(X)               :       -9.858682865956 Eh       
E(C)               :       -0.653046200404 Eh       
E(XC)              :      -10.511729066360 Eh       

---------------
SCF CONVERGENCE
---------------

  Last Energy change         ...   -5.6843e-13  Tolerance :   1.0000e-06
  Last MAX-Density change    ...    1.8579e-07  Tolerance :   1.0000e-05
  Last RMS-Density change    ...    2.9023e-08  Tolerance :   1.0000e-06
  Last Orbital Gradient      ...    6.6321e-08  Tolerance :   5.0000e-05
  Last Orbital Rotation      ...    1.2744e-07  Tolerance :   5.0000e-05

             **** THE GBW FILE WAS UPDATED (tmp/etane.gbw) ****
             **** DENSITY FILE WAS UPDATED (tmp/etane.scfp.tmp) ****
             **** ENERGY FILE WAS UPDATED (tmp/etane.en.tmp) ****
----------------
ORBITAL ENERGIES
----------------

  NO   OCC          E(Eh)            E(eV) 
   0   2.0000     -10.166140      -276.6347 
   1   2.0000     -10.165996      -276.6308 
   2   2.0000      -0.748765       -20.3749 
   3   2.0000      -0.601983       -16.3808 
   4   2.0000      -0.431132       -11.7317 
   5   2.0000      -0.430934       -11.7263 
   6   2.0000      -0.356228        -9.6935 
   7   2.0000      -0.334756        -9.1092 
   8   2.0000      -0.334551        -9.1036 
   9   0.0000       0.100467         2.7338 
  10   0.0000       0.159378         4.3369 
  11   0.0000       0.161780         4.4022 
  12   0.0000       0.162664         4.4263 
  13   0.0000       0.185857         5.0574 
  14   0.0000       0.187957         5.1146 
  15   0.0000       0.243469         6.6251 
  16   0.0000       0.535838        14.5809 
  17   0.0000       0.577990        15.7279 
  18   0.0000       0.579872        15.7791 
  19   0.0000       0.642889        17.4939 
  20   0.0000       0.644750        17.5445 
  21   0.0000       0.684365        18.6225 
  22   0.0000       0.893975        24.3263 
  23   0.0000       0.916459        24.9381 
  24   0.0000       0.916887        24.9498 
  25   0.0000       0.968376        26.3508 
  26   0.0000       0.975738        26.5512 
  27   0.0000       0.976915        26.5832 
  28   0.0000       1.094382        29.7797 
  29   0.0000       1.450992        39.4835 

                    ********************************
                    * MULLIKEN POPULATION ANALYSIS *
                    ********************************

-----------------------
MULLIKEN ATOMIC CHARGES
-----------------------
   0 C :   -0.394745
   1 H :    0.134498
   2 C :   -0.394749
   3 H :    0.129989
   4 H :    0.130268
   5 H :    0.130277
   6 H :    0.134476
   7 H :    0.129987
Sum of atomic charges:   -0.0000000

--------------------------------
MULLIKEN REDUCED ORBITAL CHARGES
--------------------------------
  0 C s       :     3.326172  s :     3.326172
      pz      :     1.008480  p :     3.068573
      px      :     1.048789
      py      :     1.011303
  1 H s       :     0.865502  s :     0.865502
  2 C s       :     3.326175  s :     3.326175
      pz      :     1.008475  p :     3.068575
      px      :     1.048789
      py      :     1.011311
  3 H s       :     0.870011  s :     0.870011
  4 H s       :     0.869732  s :     0.869732
  5 H s       :     0.869723  s :     0.869723
  6 H s       :     0.865524  s :     0.865524
  7 H s       :     0.870013  s :     0.870013


                     *******************************
                     * LOEWDIN POPULATION ANALYSIS *
                     *******************************

----------------------
LOEWDIN ATOMIC CHARGES
----------------------
   0 C :   -0.313243
   1 H :    0.105247
   2 C :   -0.313243
   3 H :    0.103958
   4 H :    0.104045
   5 H :    0.104045
   6 H :    0.105235
   7 H :    0.103955

-------------------------------
LOEWDIN REDUCED ORBITAL CHARGES
-------------------------------
  0 C s       :     2.993819  s :     2.993819
      pz      :     1.099787  p :     3.319424
      px      :     1.118517
      py      :     1.101119
  1 H s       :     0.894753  s :     0.894753
  2 C s       :     2.993824  s :     2.993824
      pz      :     1.099784  p :     3.319419
      px      :     1.118508
      py      :     1.101127
  3 H s       :     0.896042  s :     0.896042
  4 H s       :     0.895955  s :     0.895955
  5 H s       :     0.895955  s :     0.895955
  6 H s       :     0.894765  s :     0.894765
  7 H s       :     0.896045  s :     0.896045


                      *****************************
                      * MAYER POPULATION ANALYSIS *
                      *****************************

  NA   - Mulliken gross atomic population
  ZA   - Total nuclear charge
  QA   - Mulliken gross atomic charge
  VA   - Mayer's total valence
  BVA  - Mayer's bonded valence
  FA   - Mayer's free valence

  ATOM       NA         ZA         QA         VA         BVA        FA
  0 C      6.3947     6.0000    -0.3947     3.8152     3.8152    -0.0000
  1 H      0.8655     1.0000     0.1345     0.9375     0.9375     0.0000
  2 C      6.3947     6.0000    -0.3947     3.8152     3.8152    -0.0000
  3 H      0.8700     1.0000     0.1300     0.9385     0.9385     0.0000
  4 H      0.8697     1.0000     0.1303     0.9384     0.9384     0.0000
  5 H      0.8697     1.0000     0.1303     0.9384     0.9384    -0.0000
  6 H      0.8655     1.0000     0.1345     0.9375     0.9375    -0.0000
  7 H      0.8700     1.0000     0.1300     0.9385     0.9385     0.0000

  Mayer bond orders larger than 0.1
B(  0-C ,  1-H ) :   0.9590 B(  0-C ,  2-C ) :   0.9743 B(  0-C ,  3-H ) :   0.9598 
B(  0-C ,  4-H ) :   0.9598 B(  2-C ,  5-H ) :   0.9597 B(  2-C ,  6-H ) :   0.9590 
B(  2-C ,  7-H ) :   0.9598 

-------
TIMINGS
-------

Total SCF time: 0 days 0 hours 0 min 0 sec 

Total time                  ....       0.731 sec
Sum of individual times     ....       0.729 sec  ( 99.8%)

Fock matrix formation       ....       0.457 sec  ( 62.5%)
  Coulomb formation         ....       0.205 sec  ( 44.8% of F)
  XC integration            ....       0.252 sec  ( 55.2% of F)
    Basis function eval.    ....       0.168 sec  ( 66.7% of XC)
    Density eval.           ....       0.021 sec  (  8.3% of XC)
    XC-Functional eval.     ....       0.039 sec  ( 15.6% of XC)
    XC-Potential eval.      ....       0.018 sec  (  7.2% of XC)
Diagonalization             ....       0.000 sec  (  0.0%)
Density matrix formation    ....       0.000 sec  (  0.0%)
Population analysis         ....       0.000 sec  (  0.0%)
Initial guess               ....       0.000 sec  (  0.0%)
Orbital Transformation      ....       0.000 sec  (  0.0%)
Orbital Orthonormalization  ....       0.000 sec  (  0.0%)
DIIS solution               ....       0.000 sec  (  0.0%)
SOSCF solution              ....       0.001 sec  (  0.1%)
Grid generation             ....       0.271 sec  ( 37.1%)

-------------------------   --------------------
FINAL SINGLE POINT ENERGY       -79.745863471960
-------------------------   --------------------


                            ***************************************
                            *     ORCA property calculations      *
                            ***************************************

                                    ---------------------
                                    Active property flags
                                    ---------------------
   (+) Dipole Moment


------------------------------------------------------------------------------
                       ORCA ELECTRIC PROPERTIES CALCULATION
------------------------------------------------------------------------------

Dipole Moment Calculation                       ... on
Quadrupole Moment Calculation                   ... off
Polarizability Calculation                      ... off
GBWName                                         ... tmp/etane.gbw
Electron density file                           ... tmp/etane.scfp.tmp

-------------
DIPOLE MOMENT
-------------
                                X             Y             Z
Electronic contribution:      0.00025      -0.00008      -0.00014
Nuclear contribution   :     -0.00022       0.00007       0.00015
                        -----------------------------------------
Total Dipole Moment    :      0.00002      -0.00000       0.00001
                        -----------------------------------------
Magnitude (a.u.)       :      0.00003
Magnitude (Debye)      :      0.00006

------------------------------------------------------------------------------
                      ORCA CHELPG CHARGES GENERATION
------------------------------------------------------------------------------

GBW file                           ... tmp/etane.gbw

Reading the GBW file               ... done

Grid spacing                       ...     0.300000
Point Cut-Off                      ...     2.800000
Van-der-Waals Radii                ...        COSMO
Total charge                       ...            0


Number of points X direction       ...           27
Number of points Y direction       ...           28
Number of points Z direction       ...           28
Maximum number of possible points  ...        21168
Final number of points             ...         7133


CHELPG Charges            
--------------------------------
  0   C   :      -0.040278
  1   H   :       0.014631
  2   C   :      -0.049503
  3   H   :       0.013142
  4   H   :       0.014092
  5   H   :       0.015828
  6   H   :       0.016977
  7   H   :       0.015110
--------------------------------
Total charge:     0.000000
--------------------------------

CHELPG charges calculated...

Timings for individual parts in CHELPG calculation:
Grid generation                 ...        0.001 sec (=   0.000 min)
Potential calculation           ...        0.300 sec (=   0.005 min)
Fit to the potential            ...        0.003 sec (=   0.000 min)
------------------------------------------------------------------------------


Timings for individual modules:

Sum of individual times         ...        1.170 sec (=   0.019 min)
GTO integral calculation        ...        0.112 sec (=   0.002 min)   9.6 %
SCF iterations                  ...        0.739 sec (=   0.012 min)  63.1 %
CHELPG charge generation        ...        0.319 sec (=   0.005 min)  27.3 %
                             ****ORCA TERMINATED NORMALLY****
TOTAL RUN TIME: 0 days 0 hours 0 minutes 1 seconds 249 msec
