
                                 *****************
                                 * O   R   C   A *
                                 *****************

           --- An Ab Initio, DFT and Semiempirical electronic structure package ---

                  #######################################################
                  #                        -***-                        #
                  #  Department of molecular theory and spectroscopy    #
                  #              Directorship: Frank Neese              #
                  # Max Planck Institute for Chemical Energy Conversion #
                  #                  D-45470 Muelheim/Ruhr              #
                  #                       Germany                       #
                  #                                                     #
                  #                  All rights reserved                #
                  #                        -***-                        #
                  #######################################################


                         Program Version 3.0.3 - RELEASE   -


 With contributions from (in alphabetic order):
   Ute Becker             : Parallelization
   Dmytro Bykov           : SCF Hessian
   Dmitry Ganyushin       : Spin-Orbit,Spin-Spin,Magnetic field MRCI
   Andreas Hansen         : Spin unrestricted coupled pair/coupled cluster methods
   Dimitrios Liakos       : Extrapolation schemes; parallel MDCI
   Robert Izsak           : Overlap fitted RIJCOSX, COSX-SCS-MP3
   Christian Kollmar      : KDIIS, OOCD, Brueckner-CCSD(T), CCSD density
   Simone Kossmann        : Meta GGA functionals, TD-DFT gradient, OOMP2, MP2 Hessian
   Taras Petrenko         : DFT Hessian,TD-DFT gradient, ASA and ECA modules, normal mode analysis, Resonance Raman, ABS, FL, XAS/XES, NRVS
   Christoph Reimann      : Effective Core Potentials
   Michael Roemelt        : Restricted open shell CIS
   Christoph Riplinger    : Improved optimizer, TS searches, QM/MM, DLPNO-CCSD
   Barbara Sandhoefer     : DKH picture change effects
   Igor Schapiro          : Molecular dynamics
   Kantharuban Sivalingam : CASSCF convergence, NEVPT2
   Boris Wezisla          : Elementary symmetry handling
   Frank Wennmohs         : Technical directorship


 We gratefully acknowledge several colleagues who have allowed us to
 interface, adapt or use parts of their codes:
   Stefan Grimme, W. Hujo, H. Kruse, T. Risthaus : VdW corrections, initial TS optimization,
                                                   DFT functionals, gCP
   Ed Valeev                                     : LibInt (2-el integral package), F12 methods
   Garnet Chan, S. Sharma, R. Olivares           : DMRG
   Ulf Ekstrom                                   : XCFun DFT Library
   Mihaly Kallay                                 : mrcc  (arbitrary order and MRCC methods)
   Andreas Klamt, Michael Diedenhofen            : otool_cosmo (COSMO solvation model)
   Frank Weinhold                                : gennbo (NPA and NBO analysis)
   Christopher J. Cramer and Donald G. Truhlar   : smd solvation model


 Your calculation uses the libint2 library for the computation of 2-el integrals
 For citations please refer to: http://libint.valeyev.net

 This ORCA versions uses:
   CBLAS   interface :  Fast vector & matrix operations
   LAPACKE interface :  Fast linear algebra routines
   SCALAPACK package :  Parallel linear algebra routines


Your calculation utilizes the basis: 3-21G
Cite in your paper:
H - Ne: J.S. Binkley, J.A. Pople, W.J. Hehre, J. Am. Chem. Soc. 102 939 (1980)
Na - Ar: M.S. Gordon, J.S. Binkley, J.A. Pople, W.J. Pietro and W.J. Hehre,
         J. Am. Chem. Soc. 104, 2797 (1983).
 K - Ca: K.D. Dobbs, W.J. Hehre, J. Comput. Chem. 7, 359 (1986).
Ga - Kr: K.D. Dobbs, W.J. Hehre, J. Comput. Chem. 7, 359 (1986).
Sc - Zn: K.D. Dobbs, W.J. Hehre, J. Comput. Chem. 8, 861 (1987).
Y - Cd: K.D. Dobbs, W.J. Hehre, J. Comput. Chem. 8, 880 (1987).
Cs     : A 3-21G quality set derived from the Huzinage MIDI basis sets.
        E.D. Glendening and D. Feller, J. Phys. Chem. (to be published)

================================================================================
                                        WARNINGS
                       Please study these warnings very carefully!
================================================================================
Now building the actual basis set


INFO   : the flag for use of LIBINT has been found!

================================================================================
                                       INPUT FILE
================================================================================
NAME = /home/fernando/programs/orca_scripts/examples/butane.inp
|  1> # ================================================================
|  2> # Orca input file made in Gabedit                                 
|  3> # ================================================================
|  4> ! HF
|  5> !  3-21G CHELPG 
|  6> * xyz 0   1                                                       
|  7> C  -8.552000 1.288900 0.012900 
|  8> C  -7.260500 2.099900 0.066500 
|  9> H  -8.627300 0.745300 -0.952900 
| 10> H  -9.423600 1.970400 0.106400 
| 11> H  -8.582300 0.556500 0.847600 
| 12> C  -6.032200 1.192200 -0.061800 
| 13> H  -7.221500 2.647800 1.033300 
| 14> H  -7.266200 2.840000 -0.763300 
| 15> C  -4.740500 2.002400 -0.000900 
| 16> H  -4.708300 2.741400 -0.829600 
| 17> H  -3.868900 1.321300 -0.097600 
| 18> H  -4.666900 2.538300 0.969500 
| 19> H  -6.069600 0.647900 -1.030700 
| 20> H  -6.028100 0.449000 0.765200 
| 21> *                                                                 
| 22> 
| 23>                          ****END OF INPUT****
================================================================================

                       ****************************
                       * Single Point Calculation *
                       ****************************

---------------------------------
CARTESIAN COORDINATES (ANGSTROEM)
---------------------------------
  C     -8.552000    1.288900    0.012900
  C     -7.260500    2.099900    0.066500
  H     -8.627300    0.745300   -0.952900
  H     -9.423600    1.970400    0.106400
  H     -8.582300    0.556500    0.847600
  C     -6.032200    1.192200   -0.061800
  H     -7.221500    2.647800    1.033300
  H     -7.266200    2.840000   -0.763300
  C     -4.740500    2.002400   -0.000900
  H     -4.708300    2.741400   -0.829600
  H     -3.868900    1.321300   -0.097600
  H     -4.666900    2.538300    0.969500
  H     -6.069600    0.647900   -1.030700
  H     -6.028100    0.449000    0.765200

----------------------------
CARTESIAN COORDINATES (A.U.)
----------------------------
  NO LB      ZA    FRAG    MASS        X           Y           Z
   0 C     6.0000    0    12.011        -16.160937897294545          2.435668014011101          0.024377467127584
   1 C     6.0000    0    12.011        -13.720356595335248          3.968235908621236          0.125666787905763
   2 H     1.0000    0     1.008        -16.303234275178813          1.408412887611509         -1.800720033013561
   3 H     1.0000    0     1.008        -17.808023195620308          3.723516374278434          0.201066860649221
   4 H     1.0000    0     1.008        -16.218196599152357          1.051632593527177          1.601731871111653
   5 C     6.0000    0    12.011        -11.399205985039773          2.252931496860916         -0.116785075076333
   6 H     1.0000    0     1.008        -13.646657276112318          5.003616857396691          1.952654014180830
   7 H     1.0000    0     1.008        -13.731128034298600          5.366822220336354         -1.442427958022091
   8 C     6.0000    0    12.011         -8.958246737853694          3.783987610563915         -0.001700753520529
   9 H     1.0000    0     1.008         -8.897397556341430          5.180495223531719         -1.567716800701070
  10 H     1.0000    0     1.008         -7.311161439527931          2.496895140750150         -0.184437270670714
  11 H     1.0000    0     1.008         -8.819162894397090          4.796691845732313          1.832089486836654
  12 H     1.0000    0     1.008        -11.469881742448429          1.224353562167579         -1.947740726232634
  13 H     1.0000    0     1.008        -11.391458107890697          0.848487034130642          1.446018437676542

--------------------------------
INTERNAL COORDINATES (ANGSTROEM)
--------------------------------
 C      0   0   0   0.000000     0.000     0.000
 C      1   0   0   1.525964     0.000     0.000
 H      1   2   0   1.110829   110.365     0.000
 H      1   2   3   1.110347   109.585   240.345
 H      1   2   3   1.110879   110.309   120.754
 C      2   1   3   1.532678   111.136   299.738
 H      2   1   3   1.111943   108.790   178.901
 H      2   1   3   1.111912   108.856    60.569
 C      6   2   1   1.525982   111.136   180.296
 H      9   6   2   1.110811   110.364   299.742
 H      9   6   2   1.110376   109.591   180.085
 H      9   6   2   1.110982   110.306    60.493
 H      6   2   1   1.111948   109.626    59.919
 H      6   2   1   1.111887   109.667   300.619

---------------------------
INTERNAL COORDINATES (A.U.)
---------------------------
 C      0   0   0   0.000000     0.000     0.000
 C      1   0   0   2.883654     0.000     0.000
 H      1   2   0   2.099162   110.365     0.000
 H      1   2   3   2.098252   109.585   240.345
 H      1   2   3   2.099257   110.309   120.754
 C      2   1   3   2.896341   111.136   299.738
 H      2   1   3   2.101268   108.790   178.901
 H      2   1   3   2.101209   108.856    60.569
 C      6   2   1   2.883688   111.136   180.296
 H      9   6   2   2.099129   110.364   299.742
 H      9   6   2   2.098306   109.591   180.085
 H      9   6   2   2.099453   110.306    60.493
 H      6   2   1   2.101277   109.626    59.919
 H      6   2   1   2.101161   109.667   300.619

---------------------
BASIS SET INFORMATION
---------------------
There are 2 groups of distinct atoms

 Group   1 Type C   : 6s3p contracted to 3s2p pattern {321/21}
 Group   2 Type H   : 3s contracted to 2s pattern {21}

Atom   0C    basis set group =>   1
Atom   1C    basis set group =>   1
Atom   2H    basis set group =>   2
Atom   3H    basis set group =>   2
Atom   4H    basis set group =>   2
Atom   5C    basis set group =>   1
Atom   6H    basis set group =>   2
Atom   7H    basis set group =>   2
Atom   8C    basis set group =>   1
Atom   9H    basis set group =>   2
Atom  10H    basis set group =>   2
Atom  11H    basis set group =>   2
Atom  12H    basis set group =>   2
Atom  13H    basis set group =>   2
------------------------------------------------------------------------------
                           ORCA GTO INTEGRAL CALCULATION
------------------------------------------------------------------------------

                         BASIS SET STATISTICS AND STARTUP INFO

 # of primitive gaussian shells          ...   66
 # of primitive gaussian functions       ...   90
 # of contracted shell                   ...   40
 # of contracted basis functions         ...   56
 Highest angular momentum                ...    1
 Maximum contraction depth               ...    3
 Integral package used                   ... LIBINT
 Integral threshhold            Thresh   ...  1.000e-10
 Primitive cut-off              TCut     ...  1.000e-11


                              INTEGRAL EVALUATION

 One electron integrals                  ... done
 Pre-screening matrix                    ... done
 Shell pair data                         ... done (   0.000 sec)

-------------------------------------------------------------------------------
                                 ORCA SCF
-------------------------------------------------------------------------------

------------
SCF SETTINGS
------------
Hamiltonian:
 Ab initio Hamiltonian  Method          .... Hartree-Fock(GTOs)


General Settings:
 Integral files         IntName         .... /home/fernando/programs/orca_scripts/examples/butane
 Hartree-Fock type      HFTyp           .... RHF
 Total Charge           Charge          ....    0
 Multiplicity           Mult            ....    1
 Number of Electrons    NEL             ....   34
 Basis Dimension        Dim             ....   56
 Nuclear Repulsion      ENuc            ....    130.3817816380 Eh

Convergence Acceleration:
 DIIS                   CNVDIIS         .... on
   Start iteration      DIISMaxIt       ....    12
   Startup error        DIISStart       ....  0.200000
   # of expansion vecs  DIISMaxEq       ....     5
   Bias factor          DIISBfac        ....   1.050
   Max. coefficient     DIISMaxC        ....  10.000
 Newton-Raphson         CNVNR           .... off
 SOSCF                  CNVSOSCF        .... on
   Start iteration      SOSCFMaxIt      ....   150
   Startup grad/error   SOSCFStart      ....  0.003300
 Level Shifting         CNVShift        .... on
   Level shift para.    LevelShift      ....    0.2500
   Turn off err/grad.   ShiftErr        ....    0.0010
 Zerner damping         CNVZerner       .... off
 Static damping         CNVDamp         .... on
   Fraction old density DampFac         ....    0.7000
   Max. Damping (<1)    DampMax         ....    0.9800
   Min. Damping (>=0)   DampMin         ....    0.0000
   Turn off err/grad.   DampErr         ....    0.1000
 Fernandez-Rico         CNVRico         .... off

SCF Procedure:
 Maximum # iterations   MaxIter         ....   125
 SCF integral mode      SCFMode         .... Direct
   Integral package                     .... LIBINT
 Reset frequeny         DirectResetFreq ....    20
 Integral Threshold     Thresh          ....  1.000e-10 Eh
 Primitive CutOff       TCut            ....  1.000e-11 Eh

Convergence Tolerance:
 Convergence Check Mode ConvCheckMode   .... Total+1el-Energy
 Energy Change          TolE            ....  1.000e-06 Eh
 1-El. energy change                    ....  1.000e-03 Eh
 Orbital Gradient       TolG            ....  5.000e-05
 Orbital Rotation angle TolX            ....  5.000e-05
 DIIS Error             TolErr          ....  1.000e-06


Diagonalization of the overlap matrix:
Smallest eigenvalue                        ... 1.182e-02
Time for diagonalization                   ...    0.001 sec
Threshold for overlap eigenvalues          ... 1.000e-08
Number of eigenvalues below threshold      ... 0
Time for construction of square roots      ...    0.000 sec
Total time needed                          ...    0.001 sec

-------------------
DFT GRID GENERATION
-------------------

General Integration Accuracy     IntAcc      ...  4.340
Radial Grid Type                 RadialGrid  ... Gauss-Chebyshev
Angular Grid (max. acc.)         AngularGrid ... Lebedev-110
Angular grid pruning method      GridPruning ... 3 (G Style)
Weight generation scheme         WeightScheme... Becke
Basis function cutoff            BFCut       ...    1.0000e-10
Integration weight cutoff        WCut        ...    1.0000e-14
Grids for H and He will be reduced by one unit

# of grid points (after initial pruning)     ...  14564 (   0.0 sec)
# of grid points (after weights+screening)   ...  13551 (   0.0 sec)
nearest neighbour list constructed           ...    0.0 sec
Grid point re-assignment to atoms done       ...    0.0 sec
Grid point division into batches done        ...    0.0 sec
Reduced shell lists constructed in    0.1 sec

Total number of grid points                  ...    13551
Total number of batches                      ...      220
Average number of points per batch           ...       61
Average number of grid points per atom       ...      968
Average number of shells per batch           ...    30.28 (75.70%)
Average number of basis functions per batch  ...    44.09 (78.73%)
Average number of large shells per batch     ...    24.37 (80.47%)
Average number of large basis fcns per batch ...    36.35 (82.44%)
Maximum spatial batch extension              ...  18.47, 21.02, 21.59 au
Average spatial batch extension              ...   3.75,  4.01,  3.88 au

Time for grid setup =    0.128 sec

------------------------------
INITIAL GUESS: MODEL POTENTIAL
------------------------------
Loading Hartree-Fock densities                     ... done
Calculating cut-offs                               ... done
Setting up the integral package                    ... done
Initializing the effective Hamiltonian             ... done
Starting the Coulomb interaction                   ... done (   0.0 sec)
Reading the grid                                   ... done
Mapping shells                                     ... done
Starting the XC term evaluation                    ... done (   0.1 sec)
Transforming the Hamiltonian                       ... done (   0.0 sec)
Diagonalizing the Hamiltonian                      ... done (   0.0 sec)
Back transforming the eigenvectors                 ... done (   0.0 sec)
Now organizing SCF variables                       ... done
                      ------------------
                      INITIAL GUESS DONE (   0.3 sec)
                      ------------------
--------------
SCF ITERATIONS
--------------
ITER       Energy         Delta-E        Max-DP      RMS-DP      [F,P]     Damp
               ***  Starting incremental Fock matrix formation  ***
  0   -156.2257724022   0.000000000000 0.03829804  0.00377801  0.2004608 0.7000
  1   -156.2987212342  -0.072948831960 0.03360602  0.00312341  0.1305884 0.7000
                               ***Turning on DIIS***
  2   -156.3422930118  -0.043571777576 0.07968637  0.00678670  0.0780109 0.0000
  3   -156.0501423920   0.292150619763 0.02424833  0.00174529  0.0291558 0.0000
                      *** Initiating the SOSCF procedure ***
                           *** Shutting down DIIS ***
                      *** Re-Reading the Fockian *** 
                      *** Removing any level shift *** 
ITER      Energy       Delta-E        Grad      Rot      Max-DP    RMS-DP
  4   -156.39167672  -0.3415343281  0.002111  0.002111  0.007969  0.000392
               *** Restarting incremental Fock matrix formation ***
  5   -156.42704467  -0.0353679469  0.000507  0.000503  0.003463  0.000170
  6   -156.42705324  -0.0000085714  0.000196  0.000383  0.000943  0.000063
  7   -156.42705411  -0.0000008746  0.000056  0.000028  0.000093  0.000007
                 **** Energy Check signals convergence ****
              ***Rediagonalizing the Fockian in SOSCF/NRSCF***

               *****************************************************
               *                     SUCCESS                       *
               *           SCF CONVERGED AFTER   8 CYCLES          *
               *****************************************************


----------------
TOTAL SCF ENERGY
----------------

Total Energy       :         -156.42705415 Eh           -4256.59654 eV

Components:
Nuclear Repulsion  :          130.38178164 Eh            3547.86865 eV
Electronic Energy  :         -286.80883579 Eh           -7804.46519 eV

One Electron Energy:         -467.51959770 Eh          -12721.85502 eV
Two Electron Energy:          180.71076191 Eh            4917.38983 eV

Virial components:
Potential Energy   :         -312.33611800 Eh           -8499.09786 eV
Kinetic Energy     :          155.90906385 Eh            4242.50131 eV
Virial Ratio       :            2.00332239


---------------
SCF CONVERGENCE
---------------

  Last Energy change         ...   -3.9345e-08  Tolerance :   1.0000e-06
  Last MAX-Density change    ...    1.8810e-05  Tolerance :   1.0000e-05
  Last RMS-Density change    ...    1.2139e-06  Tolerance :   1.0000e-06
  Last Orbital Gradient      ...    6.3256e-06  Tolerance :   5.0000e-05
  Last Orbital Rotation      ...    8.2266e-06  Tolerance :   5.0000e-05

             **** THE GBW FILE WAS UPDATED (/home/fernando/programs/orca_scripts/examples/butane.gbw) ****
             **** DENSITY FILE WAS UPDATED (/home/fernando/programs/orca_scripts/examples/butane.scfp.tmp) ****
             **** ENERGY FILE WAS UPDATED (/home/fernando/programs/orca_scripts/examples/butane.en.tmp) ****
----------------
ORBITAL ENERGIES
----------------

  NO   OCC          E(Eh)            E(eV) 
   0   2.0000     -11.163080      -303.7628 
   1   2.0000     -11.162863      -303.7570 
   2   2.0000     -11.157281      -303.6050 
   3   2.0000     -11.157068      -303.5993 
   4   2.0000      -1.072903       -29.1952 
   5   2.0000      -0.980020       -26.6677 
   6   2.0000      -0.851793       -23.1785 
   7   2.0000      -0.780720       -21.2445 
   8   2.0000      -0.641447       -17.4547 
   9   2.0000      -0.584113       -15.8945 
  10   2.0000      -0.570375       -15.5207 
  11   2.0000      -0.566499       -15.4152 
  12   2.0000      -0.507920       -13.8212 
  13   2.0000      -0.488625       -13.2962 
  14   2.0000      -0.462403       -12.5826 
  15   2.0000      -0.456178       -12.4132 
  16   2.0000      -0.445734       -12.1290 
  17   0.0000       0.259963         7.0739 
  18   0.0000       0.290873         7.9151 
  19   0.0000       0.296203         8.0601 
  20   0.0000       0.313487         8.5304 
  21   0.0000       0.339242         9.2312 
  22   0.0000       0.358899         9.7661 
  23   0.0000       0.361617         9.8401 
  24   0.0000       0.367946        10.0123 
  25   0.0000       0.374186        10.1821 
  26   0.0000       0.380569        10.3558 
  27   0.0000       0.449445        12.2300 
  28   0.0000       0.451037        12.2733 
  29   0.0000       0.452115        12.3027 
  30   0.0000       0.910839        24.7852 
  31   0.0000       0.918056        24.9816 
  32   0.0000       0.921826        25.0841 
  33   0.0000       0.962138        26.1811 
  34   0.0000       1.012638        27.5553 
  35   0.0000       1.036060        28.1926 
  36   0.0000       1.063611        28.9423 
  37   0.0000       1.102735        30.0069 
  38   0.0000       1.109003        30.1775 
  39   0.0000       1.183551        32.2061 
  40   0.0000       1.236862        33.6567 
  41   0.0000       1.243275        33.8312 
  42   0.0000       1.332480        36.2586 
  43   0.0000       1.349063        36.7099 
  44   0.0000       1.351920        36.7876 
  45   0.0000       1.373427        37.3728 
  46   0.0000       1.383532        37.6478 
  47   0.0000       1.404201        38.2102 
  48   0.0000       1.412284        38.4302 
  49   0.0000       1.435219        39.0543 
  50   0.0000       1.436856        39.0988 
  51   0.0000       1.586129        43.1608 
  52   0.0000       1.874828        51.0167 
  53   0.0000       2.176726        59.2317 
  54   0.0000       2.309313        62.8396 
  55   0.0000       2.586419        70.3801 

                    ********************************
                    * MULLIKEN POPULATION ANALYSIS *
                    ********************************

-----------------------
MULLIKEN ATOMIC CHARGES
-----------------------
   0 C :   -0.563654
   1 C :   -0.407037
   2 H :    0.191324
   3 H :    0.192360
   4 H :    0.191325
   5 C :   -0.407034
   6 H :    0.197830
   7 H :    0.197857
   8 C :   -0.563631
   9 H :    0.191330
  10 H :    0.192352
  11 H :    0.191289
  12 H :    0.197841
  13 H :    0.197848
Sum of atomic charges:   -0.0000000

--------------------------------
MULLIKEN REDUCED ORBITAL CHARGES
--------------------------------
  0 C s       :     3.461013  s :     3.461013
      pz      :     1.095125  p :     3.102640
      px      :     0.962457
      py      :     1.045058
  1 C s       :     3.448471  s :     3.448471
      pz      :     1.105888  p :     2.958566
      px      :     0.861193
      py      :     0.991485
  2 H s       :     0.808676  s :     0.808676
  3 H s       :     0.807640  s :     0.807640
  4 H s       :     0.808675  s :     0.808675
  5 C s       :     3.448466  s :     3.448466
      pz      :     1.105829  p :     2.958569
      px      :     0.861161
      py      :     0.991578
  6 H s       :     0.802170  s :     0.802170
  7 H s       :     0.802143  s :     0.802143
  8 C s       :     3.461015  s :     3.461015
      pz      :     1.095011  p :     3.102617
      px      :     0.962420
      py      :     1.045186
  9 H s       :     0.808670  s :     0.808670
 10 H s       :     0.807648  s :     0.807648
 11 H s       :     0.808711  s :     0.808711
 12 H s       :     0.802159  s :     0.802159
 13 H s       :     0.802152  s :     0.802152


                     *******************************
                     * LOEWDIN POPULATION ANALYSIS *
                     *******************************

----------------------
LOEWDIN ATOMIC CHARGES
----------------------
   0 C :   -0.253684
   1 C :   -0.160729
   2 H :    0.084536
   3 H :    0.084710
   4 H :    0.084531
   5 C :   -0.160736
   6 H :    0.080307
   7 H :    0.080339
   8 C :   -0.253682
   9 H :    0.084535
  10 H :    0.084708
  11 H :    0.084523
  12 H :    0.080333
  13 H :    0.080309

-------------------------------
LOEWDIN REDUCED ORBITAL CHARGES
-------------------------------
  0 C s       :     2.978197  s :     2.978197
      pz      :     1.109182  p :     3.275487
      px      :     1.070641
      py      :     1.095664
  1 C s       :     2.954686  s :     2.954686
      pz      :     1.098378  p :     3.206044
      px      :     1.033222
      py      :     1.074444
  2 H s       :     0.915464  s :     0.915464
  3 H s       :     0.915290  s :     0.915290
  4 H s       :     0.915469  s :     0.915469
  5 C s       :     2.954688  s :     2.954688
      pz      :     1.098381  p :     3.206049
      px      :     1.033211
      py      :     1.074457
  6 H s       :     0.919693  s :     0.919693
  7 H s       :     0.919661  s :     0.919661
  8 C s       :     2.978219  s :     2.978219
      pz      :     1.109142  p :     3.275464
      px      :     1.070625
      py      :     1.095697
  9 H s       :     0.915465  s :     0.915465
 10 H s       :     0.915292  s :     0.915292
 11 H s       :     0.915477  s :     0.915477
 12 H s       :     0.919667  s :     0.919667
 13 H s       :     0.919691  s :     0.919691


                      *****************************
                      * MAYER POPULATION ANALYSIS *
                      *****************************

  NA   - Mulliken gross atomic population
  ZA   - Total nuclear charge
  QA   - Mulliken gross atomic charge
  VA   - Mayer's total valence
  BVA  - Mayer's bonded valence
  FA   - Mayer's free valence

  ATOM       NA         ZA         QA         VA         BVA        FA
  0 C      6.5637     6.0000    -0.5637     3.6671     3.6671    -0.0000
  1 C      6.4070     6.0000    -0.4070     3.5954     3.5954    -0.0000
  2 H      0.8087     1.0000     0.1913     0.9224     0.9224    -0.0000
  3 H      0.8076     1.0000     0.1924     0.9222     0.9222    -0.0000
  4 H      0.8087     1.0000     0.1913     0.9223     0.9223     0.0000
  5 C      6.4070     6.0000    -0.4070     3.5954     3.5954     0.0000
  6 H      0.8022     1.0000     0.1978     0.9161     0.9161    -0.0000
  7 H      0.8021     1.0000     0.1979     0.9161     0.9161    -0.0000
  8 C      6.5636     6.0000    -0.5636     3.6671     3.6671     0.0000
  9 H      0.8087     1.0000     0.1913     0.9224     0.9224    -0.0000
 10 H      0.8076     1.0000     0.1924     0.9222     0.9222     0.0000
 11 H      0.8087     1.0000     0.1913     0.9224     0.9224     0.0000
 12 H      0.8022     1.0000     0.1978     0.9161     0.9161     0.0000
 13 H      0.8022     1.0000     0.1978     0.9161     0.9161    -0.0000

  Mayer bond orders larger than 0.1
B(  0-C ,  1-C ) :   0.9119 B(  0-C ,  2-H ) :   0.9305 B(  0-C ,  3-H ) :   0.9343 
B(  0-C ,  4-H ) :   0.9305 B(  1-C ,  5-C ) :   0.8957 B(  1-C ,  6-H ) :   0.9258 
B(  1-C ,  7-H ) :   0.9258 B(  5-C ,  8-C ) :   0.9119 B(  5-C , 12-H ) :   0.9258 
B(  5-C , 13-H ) :   0.9258 B(  8-C ,  9-H ) :   0.9305 B(  8-C , 10-H ) :   0.9343 
B(  8-C , 11-H ) :   0.9305 

-------
TIMINGS
-------

Total SCF time: 0 days 0 hours 0 min 2 sec 

Total time                  ....       2.140 sec
Sum of individual times     ....       2.581 sec  (120.6%)

Fock matrix formation       ....       2.122 sec  ( 99.2%)
Diagonalization             ....       0.005 sec  (  0.2%)
Density matrix formation    ....       0.000 sec  (  0.0%)
Population analysis         ....       0.002 sec  (  0.1%)
Initial guess               ....       0.319 sec  ( 14.9%)
Orbital Transformation      ....       0.000 sec  (  0.0%)
Orbital Orthonormalization  ....       0.000 sec  (  0.0%)
DIIS solution               ....       0.001 sec  (  0.1%)
SOSCF solution              ....       0.003 sec  (  0.2%)

-------------------------   --------------------
FINAL SINGLE POINT ENERGY      -156.427054152350
-------------------------   --------------------


                            ***************************************
                            *     ORCA property calculations      *
                            ***************************************

                                    ---------------------
                                    Active property flags
                                    ---------------------
   (+) Dipole Moment


------------------------------------------------------------------------------
                       ORCA ELECTRIC PROPERTIES CALCULATION
------------------------------------------------------------------------------

Dipole Moment Calculation                       ... on
Quadrupole Moment Calculation                   ... off
Polarizability Calculation                      ... off
GBWName                                         ... /home/fernando/programs/orca_scripts/examples/butane.gbw
Electron density file                           ... /home/fernando/programs/orca_scripts/examples/butane.scfp.tmp

-------------
DIPOLE MOMENT
-------------
                                X             Y             Z
Electronic contribution:     -0.00025       0.00044      -0.00474
Nuclear contribution   :      0.00023      -0.00047       0.00477
                        -----------------------------------------
Total Dipole Moment    :     -0.00002      -0.00002       0.00003
                        -----------------------------------------
Magnitude (a.u.)       :      0.00004
Magnitude (Debye)      :      0.00010

------------------------------------------------------------------------------
                      ORCA CHELPG CHARGES GENERATION
------------------------------------------------------------------------------

GBW file                           ... /home/fernando/programs/orca_scripts/examples/butane.gbw

Reading the GBW file               ... done

Grid spacing                       ...     0.300000
Point Cut-Off                      ...     2.800000
Van-der-Waals Radii                ...        COSMO
Total charge                       ...            0


Number of points X direction       ...           37
Number of points Y direction       ...           26
Number of points Z direction       ...           25
Maximum number of possible points  ...        24050
Final number of points             ...        10147


CHELPG Charges            
--------------------------------
  0   C   :      -0.475268
  1   C   :       0.116523
  2   H   :       0.110408
  3   H   :       0.119491
  4   H   :       0.111253
  5   C   :       0.116210
  6   H   :       0.008667
  7   H   :       0.008931
  8   C   :      -0.464723
  9   H   :       0.107531
 10   H   :       0.116988
 11   H   :       0.107943
 12   H   :       0.008171
 13   H   :       0.007875
--------------------------------
Total charge:     0.000000
--------------------------------

CHELPG charges calculated...

Timings for individual parts in CHELPG calculation:
Grid generation                 ...        0.002 sec (=   0.000 min)
Potential calculation           ...        0.984 sec (=   0.016 min)
Fit to the potential            ...        0.007 sec (=   0.000 min)
------------------------------------------------------------------------------


Timings for individual modules:

Sum of individual times         ...        3.689 sec (=   0.061 min)
GTO integral calculation        ...        0.181 sec (=   0.003 min)   4.9 %
SCF iterations                  ...        2.476 sec (=   0.041 min)  67.1 %
CHELPG charge generation        ...        1.032 sec (=   0.017 min)  28.0 %
                             ****ORCA TERMINATED NORMALLY****
TOTAL RUN TIME: 0 days 0 hours 0 minutes 3 seconds 820 msec
