14
	Energy:       1.7744184
C         -8.55197        1.28891        0.01295
C         -7.26048        2.09988        0.06654
H         -8.62727        0.74527       -0.95287
H         -9.42362        1.97043        0.10644
H         -8.58233        0.55645        0.84764
C         -6.03217        1.19220       -0.06178
H         -7.22151        2.64780        1.03328
H         -7.26617        2.84003       -0.76328
C         -4.74052        2.00239       -0.00085
H         -4.70831        2.74145       -0.82957
H         -3.86892        1.32126       -0.09758
H         -4.66685        2.53831        0.96946
H         -6.06964        0.64790       -1.03069
H         -6.02807        0.44897        0.76521
