
                                 *****************
                                 * O   R   C   A *
                                 *****************

           --- An Ab Initio, DFT and Semiempirical electronic structure package ---

                  #######################################################
                  #                        -***-                        #
                  #  Department of molecular theory and spectroscopy    #
                  #              Directorship: Frank Neese              #
                  # Max Planck Institute for Chemical Energy Conversion #
                  #                  D-45470 Muelheim/Ruhr              #
                  #                       Germany                       #
                  #                                                     #
                  #                  All rights reserved                #
                  #                        -***-                        #
                  #######################################################


                         Program Version 3.0.3 - RELEASE   -


 With contributions from (in alphabetic order):
   Ute Becker             : Parallelization
   Dmytro Bykov           : SCF Hessian
   Dmitry Ganyushin       : Spin-Orbit,Spin-Spin,Magnetic field MRCI
   Andreas Hansen         : Spin unrestricted coupled pair/coupled cluster methods
   Dimitrios Liakos       : Extrapolation schemes; parallel MDCI
   Robert Izsak           : Overlap fitted RIJCOSX, COSX-SCS-MP3
   Christian Kollmar      : KDIIS, OOCD, Brueckner-CCSD(T), CCSD density
   Simone Kossmann        : Meta GGA functionals, TD-DFT gradient, OOMP2, MP2 Hessian
   Taras Petrenko         : DFT Hessian,TD-DFT gradient, ASA and ECA modules, normal mode analysis, Resonance Raman, ABS, FL, XAS/XES, NRVS
   Christoph Reimann      : Effective Core Potentials
   Michael Roemelt        : Restricted open shell CIS
   Christoph Riplinger    : Improved optimizer, TS searches, QM/MM, DLPNO-CCSD
   Barbara Sandhoefer     : DKH picture change effects
   Igor Schapiro          : Molecular dynamics
   Kantharuban Sivalingam : CASSCF convergence, NEVPT2
   Boris Wezisla          : Elementary symmetry handling
   Frank Wennmohs         : Technical directorship


 We gratefully acknowledge several colleagues who have allowed us to
 interface, adapt or use parts of their codes:
   Stefan Grimme, W. Hujo, H. Kruse, T. Risthaus : VdW corrections, initial TS optimization,
                                                   DFT functionals, gCP
   Ed Valeev                                     : LibInt (2-el integral package), F12 methods
   Garnet Chan, S. Sharma, R. Olivares           : DMRG
   Ulf Ekstrom                                   : XCFun DFT Library
   Mihaly Kallay                                 : mrcc  (arbitrary order and MRCC methods)
   Andreas Klamt, Michael Diedenhofen            : otool_cosmo (COSMO solvation model)
   Frank Weinhold                                : gennbo (NPA and NBO analysis)
   Christopher J. Cramer and Donald G. Truhlar   : smd solvation model


 Your calculation uses the libint2 library for the computation of 2-el integrals
 For citations please refer to: http://libint.valeyev.net

 This ORCA versions uses:
   CBLAS   interface :  Fast vector & matrix operations
   LAPACKE interface :  Fast linear algebra routines
   SCALAPACK package :  Parallel linear algebra routines


leaving
================================================================================
                                        WARNINGS
                       Please study these warnings very carefully!
================================================================================
Now building the actual basis set

WARNING: Direct SCF is incompatible with Method<>HF and Method<>DFT
  ===> : conventional SCF is chosen

WARNING: The NDO methods need Guess=HUECKEL or Guess=HCORE or Guess=MOREAD
  ===> : Guess is set to Hueckel

WARNING: The NDO methods need %rel::SOCType==1
  ===> : %rel::SOCType is set to 1

WARNING: The NDO methods cannot have frozencore=1
  ===> : %method FrozenCore=0 end


INFO   : the flag for use of LIBINT has been found!

================================================================================
                                       INPUT FILE
================================================================================
NAME = orca_tmp/2_09a.inp
|  1> # ----------------------------------------------------------------
|  2> #            Orca input file - 2_09a                 
|  3> # ----------------------------------------------------------------
|  4> ! AM1
|  5> !   CHELPG 
|  6> * xyz   0   1  
|  7> C  22.689000 49.170200 59.580700 
|  8> C  21.455200 49.180100 60.204800 
|  9> C  21.090200 48.196600 61.101400 
| 10> C  22.007900 47.178700 61.359800 
| 11> C  23.304500 47.137900 60.729900 
| 12> C  23.624500 48.170200 59.823500 
| 13> S  21.830700 45.830000 62.412500 
| 14> C  23.335000 45.135800 61.977200 
| 15> C  24.064600 45.975100 61.151000 
| 16> C  23.685100 43.825000 62.461500 
| 17> O  22.687900 43.034700 62.899300 
| 18> N  24.856000 43.267200 62.439800 
| 19> O  25.332600 45.716700 60.693900 
| 20> C  26.383000 46.596300 61.116700 
| 21> C  27.609200 46.372300 60.201100 
| 22> C  28.347000 45.053000 60.499300 
| 23> N  28.780400 45.022900 61.893100 
| 24> C  27.650000 45.115600 62.816300 
| 25> C  26.801600 46.392600 62.591900 
| 26> N  23.310700 41.807500 63.092900 
| 27> C  24.590400 42.072200 62.937000 
| 28> C  25.668200 41.088400 63.308300 
| 29> C  26.017400 41.172800 64.786700 
| 30> C  27.081600 41.972400 65.210100 
| 31> C  27.397700 42.047000 66.563300 
| 32> C  26.650200 41.326800 67.492800 
| 33> C  25.587600 40.530900 67.074700 
| 34> C  25.268900 40.452700 65.722400 
| 35> H  22.933200 49.960100 58.883500 
| 36> H  20.760900 49.972800 59.984300 
| 37> H  20.122500 48.215200 61.580500 
| 38> H  24.576200 48.185000 59.313100 
| 39> H  26.037100 47.621300 60.983400 
| 40> H  27.314600 46.419800 59.152500 
| 41> H  28.332400 47.172400 60.341300 
| 42> H  29.224500 44.964200 59.857600 
| 43> H  27.711300 44.190400 60.295900 
| 44> H  29.430500 45.776700 62.067000 
| 45> H  28.022100 45.093900 63.839400 
| 46> H  27.056500 44.217300 62.692600 
| 47> H  25.925300 46.379000 63.240400 
| 48> H  27.382400 47.260700 62.909200 
| 49> H  25.335500 40.071900 63.092900 
| 50> H  26.551800 41.266800 62.699800 
| 51> H  27.660000 42.531600 64.488900 
| 52> H  28.220000 42.664100 66.892300 
| 53> H  26.894600 41.386500 68.543200 
| 54> H  25.010600 39.976000 67.799100 
| 55> H  24.442900 39.835700 65.398900 
| 56> *                                                                 
| 57> 
| 58>                          ****END OF INPUT****
================================================================================

                       ****************************
                       * Single Point Calculation *
                       ****************************

---------------------------------
CARTESIAN COORDINATES (ANGSTROEM)
---------------------------------
  C     22.689000   49.170200   59.580700
  C     21.455200   49.180100   60.204800
  C     21.090200   48.196600   61.101400
  C     22.007900   47.178700   61.359800
  C     23.304500   47.137900   60.729900
  C     23.624500   48.170200   59.823500
  S     21.830700   45.830000   62.412500
  C     23.335000   45.135800   61.977200
  C     24.064600   45.975100   61.151000
  C     23.685100   43.825000   62.461500
  O     22.687900   43.034700   62.899300
  N     24.856000   43.267200   62.439800
  O     25.332600   45.716700   60.693900
  C     26.383000   46.596300   61.116700
  C     27.609200   46.372300   60.201100
  C     28.347000   45.053000   60.499300
  N     28.780400   45.022900   61.893100
  C     27.650000   45.115600   62.816300
  C     26.801600   46.392600   62.591900
  N     23.310700   41.807500   63.092900
  C     24.590400   42.072200   62.937000
  C     25.668200   41.088400   63.308300
  C     26.017400   41.172800   64.786700
  C     27.081600   41.972400   65.210100
  C     27.397700   42.047000   66.563300
  C     26.650200   41.326800   67.492800
  C     25.587600   40.530900   67.074700
  C     25.268900   40.452700   65.722400
  H     22.933200   49.960100   58.883500
  H     20.760900   49.972800   59.984300
  H     20.122500   48.215200   61.580500
  H     24.576200   48.185000   59.313100
  H     26.037100   47.621300   60.983400
  H     27.314600   46.419800   59.152500
  H     28.332400   47.172400   60.341300
  H     29.224500   44.964200   59.857600
  H     27.711300   44.190400   60.295900
  H     29.430500   45.776700   62.067000
  H     28.022100   45.093900   63.839400
  H     27.056500   44.217300   62.692600
  H     25.925300   46.379000   63.240400
  H     27.382400   47.260700   62.909200
  H     25.335500   40.071900   63.092900
  H     26.551800   41.266800   62.699800
  H     27.660000   42.531600   64.488900
  H     28.220000   42.664100   66.892300
  H     26.894600   41.386500   68.543200
  H     25.010600   39.976000   67.799100
  H     24.442900   39.835700   65.398900

----------------------------
CARTESIAN COORDINATES (A.U.)
----------------------------
  NO LB      ZA    FRAG    MASS        X           Y           Z
   0 C     4.0000    0    12.011         42.875996252539281         92.918211950134733        112.591205867321918
   1 C     4.0000    0    12.011         40.544452148507240         92.936920238860552        113.770583947502175
   2 C     4.0000    0    12.011         39.854702109625983         91.078374586148996        115.464912399175958
   3 C     4.0000    0    12.011         41.588903782725517         89.154822354430550        115.953217632181222
   4 C     4.0000    0    12.011         44.039122687967811         89.077721528166578        114.762879140424218
   5 C     4.0000    0    12.011         44.643835050822609         91.028485816213475        113.050031372638003
   6 S     6.0000    0    32.060         41.254044311794672         86.606148717610964        117.942532333360120
   7 C     4.0000    0    12.011         44.096759335052411         85.294300835442840        117.119934547264208
   8 C     4.0000    0    12.011         45.475503522361350         86.880347979642934        115.558642815418466
   9 C     4.0000    0    12.011         44.758352454538233         82.817247819098853        118.035128913922264
  10 O     6.0000    0    15.999         42.873917553791962         81.323797255460889        118.862451015352974
  11 N     5.0000    0    14.007         46.971032784746633         81.763158581597580        117.994121856816164
  12 O     6.0000    0    15.999         47.871676260173501         86.392042746637685        114.694848999603053
  13 C     4.0000    0    12.011         49.856644591244383         88.054245854034818        115.493825209024962
  14 C     4.0000    0    12.011         52.173826776658622         87.630947200036459        113.763591960806650
  15 C     4.0000    0    12.011         53.568066718265726         85.137831511554140        114.327108293941976
  16 N     5.0000    0    14.007         54.387074024707189         85.080950754923123        116.961008579401408
  17 C     4.0000    0    12.011         52.250927602922609         85.256128367537627        118.705603746237514
  18 C     4.0000    0    12.011         50.647683950903819         87.669308640555059        118.281549201785595
  19 N     5.0000    0    14.007         44.050838989998120         79.004725343912725        119.228301994880141
  20 C     4.0000    0    12.011         46.469121523577144         79.504935851561683        118.933693690601814
  21 C     4.0000    0    12.011         48.505868350717471         77.645823281009953        119.635349004126780
  22 C     4.0000    0    12.011         49.165760716682769         77.805316166712913        122.429120120515947
  23 C     4.0000    0    12.011         51.176807268401774         79.316341183396347        123.229230165618205
  24 C     4.0000    0    12.011         51.774149699334281         79.457314752986861        125.786407570040453
  25 C     4.0000    0    12.011         50.361579414228146         78.096333991336778        127.542908011520254
  26 C     4.0000    0    12.011         48.353556424323415         76.592300961348869        126.752813514927794
  27 C     4.0000    0    12.011         47.751300705442716         76.444524377676217        124.197336864026056
  28 H     1.0000    0     1.008         43.337467374442845         94.410906623319121        111.273688806752020
  29 H     1.0000    0     1.008         39.232415293725715         94.434906145219927        113.353899334972525
  30 H     1.0000    0     1.008         38.026014129830386         91.113523492239935        116.370280189937645
  31 H     1.0000    0     1.008         46.442287412475466         91.056453762995517        112.085515153884586
  32 H     1.0000    0     1.008         49.202988321521019         89.991215141304096        115.241924715373258
  33 H     1.0000    0     1.008         51.617113457605420         87.720709191397717        111.782025136776852
  34 H     1.0000    0     1.008         53.540476716710472         89.142917079786855        114.028531564782412
  35 H     1.0000    0     1.008         55.226301400781615         84.970023830861948        113.114471033804705
  36 H     1.0000    0     1.008         52.366767814931983         83.507753748433672        113.942737998302405
  37 H     1.0000    0     1.008         55.615584984369391         86.505426314672960        117.289631954090325
  38 H     1.0000    0     1.008         52.954094697354705         85.215121310431527        120.638982553852344
  39 H     1.0000    0     1.008         51.129375142440345         83.558587381436169        118.471844623471455
  40 H     1.0000    0     1.008         48.991716939748628         87.643608365133730        119.507036599633523
  41 H     1.0000    0     1.008         51.745236889485284         89.309779897412099        118.881159304078807
  42 H     1.0000    0     1.008         47.877156465961868         75.724916665879007        119.228301994880141
  43 H     1.0000    0     1.008         50.175630362650288         77.982950423301517        118.485450651635702
  44 H     1.0000    0     1.008         52.269824864261821         80.373076037485106        121.866359677834211
  45 H     1.0000    0     1.008         53.328071499257717         80.623464750229672        126.408127468100560
  46 H     1.0000    0     1.008         50.823428481358498         78.209150641531878        129.527876342591128
  47 H     1.0000    0     1.008         47.263184445050854         75.543691929635955        128.121731126340336
  48 H     1.0000    0     1.008         46.190386918823762         75.278563353046806        123.586010459702536

--------------------------------
INTERNAL COORDINATES (ANGSTROEM)
--------------------------------
 C      0   0   0   0.000000     0.000     0.000
 C      1   0   0   1.382701     0.000     0.000
 C      2   1   0   1.379996   121.612     0.000
 C      3   2   1   1.394656   117.807   359.765
 C      4   3   2   1.442085   122.097     0.382
 C      1   2   3   1.390724   121.775     0.000
 S      4   3   2   1.720049   128.162   180.308
 C      7   4   3   1.712985    94.116   175.871
 C      8   7   4   1.385405   111.624     6.798
 C      8   7   4   1.440595   119.784   187.366
 O     10   8   7   1.345604   117.625    19.292
 N     10   8   7   1.297158   127.230   193.939
 O      9   8   7   1.372419   124.829   176.706
 C     13   9   8   1.433805   117.590   244.160
 C     14  13   9   1.546630   108.506   195.488
 C     15  14  13   1.540722   112.898   286.009
 N     16  15  14   1.459938   110.157   302.207
 C     17  16  15   1.462428   111.834    60.402
 C     14  13   9   1.546911   113.495    73.750
 N     11  10   8   1.389741   103.406   171.203
 C     20  11  10   1.316056   103.984     8.603
 C     21  20  11   1.505782   122.370   168.344
 C     22  21  20   1.521424   111.571   275.670
 C     23  22  21   1.396835   120.077   265.595
 C     24  23  22   1.391630   119.900   179.993
 C     25  24  23   1.393347   119.941   359.843
 C     26  25  24   1.391899   120.314     0.043
 C     27  26  25   1.391546   119.926     0.000
 H      1   2   3   1.081510   119.158   179.903
 H      2   1   3   1.076590   119.228   180.163
 H      3   2   1   1.079966   120.861   180.119
 H      6   1   2   1.080028   120.026   179.412
 H     14  13   9   1.089973   107.960   312.754
 H     15  14  13   1.090233   110.417    50.477
 H     15  14  13   1.087582   110.141   166.914
 H     16  15  14   1.090720   109.944   182.396
 H     16  15  14   1.090672   111.225    63.883
 H     17  16  15   1.010488   109.871   298.002
 H     18  17  16   1.088881   109.131   180.260
 H     18  17  16   1.083737   107.380    65.629
 H     19  14  13   1.090247   110.572   310.812
 H     19  14  13   1.091607   108.449   195.774
 H     22  21  20   1.091036   109.984    35.836
 H     22  21  20   1.087588   109.657   153.075
 H     24  23  22   1.080454   120.119   359.915
 H     25  24  23   1.079459   120.003   179.976
 H     26  25  24   1.080109   119.920   180.122
 H     27  26  25   1.079629   120.023   180.092
 H     28  27  26   1.080563   119.874   180.089

---------------------------
INTERNAL COORDINATES (A.U.)
---------------------------
 C      0   0   0   0.000000     0.000     0.000
 C      1   0   0   2.612926     0.000     0.000
 C      2   1   0   2.607814   121.612     0.000
 C      3   2   1   2.635517   117.807   359.765
 C      4   3   2   2.725146   122.097     0.382
 C      1   2   3   2.628087   121.775     0.000
 S      4   3   2   3.250422   128.162   180.308
 C      7   4   3   3.237073    94.116   175.871
 C      8   7   4   2.618036   111.624     6.798
 C      8   7   4   2.722329   119.784   187.366
 O     10   8   7   2.542823   117.625    19.292
 N     10   8   7   2.451273   127.230   193.939
 O      9   8   7   2.593497   124.829   176.706
 C     13   9   8   2.709498   117.590   244.160
 C     14  13   9   2.922708   108.506   195.488
 C     15  14  13   2.911543   112.898   286.009
 N     16  15  14   2.758884   110.157   302.207
 C     17  16  15   2.763588   111.834    60.402
 C     14  13   9   2.923239   113.495    73.750
 N     11  10   8   2.626230   103.406   171.203
 C     20  11  10   2.486985   103.984     8.603
 C     21  20  11   2.845515   122.370   168.344
 C     22  21  20   2.875074   111.571   275.670
 C     23  22  21   2.639637   120.077   265.595
 C     24  23  22   2.629800   119.900   179.993
 C     25  24  23   2.633043   119.941   359.843
 C     26  25  24   2.630308   120.314     0.043
 C     27  26  25   2.629641   119.926     0.000
 H      1   2   3   2.043757   119.158   179.903
 H      2   1   3   2.034460   119.228   180.163
 H      3   2   1   2.040840   120.861   180.119
 H      6   1   2   2.040957   120.026   179.412
 H     14  13   9   2.059750   107.960   312.754
 H     15  14  13   2.060241   110.417    50.477
 H     15  14  13   2.055232   110.141   166.914
 H     16  15  14   2.061162   109.944   182.396
 H     16  15  14   2.061071   111.225    63.883
 H     17  16  15   1.909545   109.871   298.002
 H     18  17  16   2.057688   109.131   180.260
 H     18  17  16   2.047967   107.380    65.629
 H     19  14  13   2.060269   110.572   310.812
 H     19  14  13   2.062838   108.449   195.774
 H     22  21  20   2.061759   109.984    35.836
 H     22  21  20   2.055244   109.657   153.075
 H     24  23  22   2.041762   120.119   359.915
 H     25  24  23   2.039881   120.003   179.976
 H     26  25  24   2.041110   119.920   180.122
 H     27  26  25   2.040203   120.023   180.092
 H     28  27  26   2.041969   119.874   180.089

----------------------------
SLATER BASIS SET DIM= 133
----------------------------
  0 C     2 shells
 l=0 nsto= 1
    2       1.808665000000        1.000000000000
 l=1 nsto= 1
    2       1.685116000000        1.000000000000
  1 C     2 shells
 l=0 nsto= 1
    2       1.808665000000        1.000000000000
 l=1 nsto= 1
    2       1.685116000000        1.000000000000
  2 C     2 shells
 l=0 nsto= 1
    2       1.808665000000        1.000000000000
 l=1 nsto= 1
    2       1.685116000000        1.000000000000
  3 C     2 shells
 l=0 nsto= 1
    2       1.808665000000        1.000000000000
 l=1 nsto= 1
    2       1.685116000000        1.000000000000
  4 C     2 shells
 l=0 nsto= 1
    2       1.808665000000        1.000000000000
 l=1 nsto= 1
    2       1.685116000000        1.000000000000
  5 C     2 shells
 l=0 nsto= 1
    2       1.808665000000        1.000000000000
 l=1 nsto= 1
    2       1.685116000000        1.000000000000
  6 S     2 shells
 l=0 nsto= 1
    3       2.366515000000        1.000000000000
 l=1 nsto= 1
    3       1.667263000000        1.000000000000
  7 C     2 shells
 l=0 nsto= 1
    2       1.808665000000        1.000000000000
 l=1 nsto= 1
    2       1.685116000000        1.000000000000
  8 C     2 shells
 l=0 nsto= 1
    2       1.808665000000        1.000000000000
 l=1 nsto= 1
    2       1.685116000000        1.000000000000
  9 C     2 shells
 l=0 nsto= 1
    2       1.808665000000        1.000000000000
 l=1 nsto= 1
    2       1.685116000000        1.000000000000
 10 O     2 shells
 l=0 nsto= 1
    2       3.108032000000        1.000000000000
 l=1 nsto= 1
    2       2.524039000000        1.000000000000
 11 N     2 shells
 l=0 nsto= 1
    2       2.315410000000        1.000000000000
 l=1 nsto= 1
    2       2.157940000000        1.000000000000
 12 O     2 shells
 l=0 nsto= 1
    2       3.108032000000        1.000000000000
 l=1 nsto= 1
    2       2.524039000000        1.000000000000
 13 C     2 shells
 l=0 nsto= 1
    2       1.808665000000        1.000000000000
 l=1 nsto= 1
    2       1.685116000000        1.000000000000
 14 C     2 shells
 l=0 nsto= 1
    2       1.808665000000        1.000000000000
 l=1 nsto= 1
    2       1.685116000000        1.000000000000
 15 C     2 shells
 l=0 nsto= 1
    2       1.808665000000        1.000000000000
 l=1 nsto= 1
    2       1.685116000000        1.000000000000
 16 N     2 shells
 l=0 nsto= 1
    2       2.315410000000        1.000000000000
 l=1 nsto= 1
    2       2.157940000000        1.000000000000
 17 C     2 shells
 l=0 nsto= 1
    2       1.808665000000        1.000000000000
 l=1 nsto= 1
    2       1.685116000000        1.000000000000
 18 C     2 shells
 l=0 nsto= 1
    2       1.808665000000        1.000000000000
 l=1 nsto= 1
    2       1.685116000000        1.000000000000
 19 N     2 shells
 l=0 nsto= 1
    2       2.315410000000        1.000000000000
 l=1 nsto= 1
    2       2.157940000000        1.000000000000
 20 C     2 shells
 l=0 nsto= 1
    2       1.808665000000        1.000000000000
 l=1 nsto= 1
    2       1.685116000000        1.000000000000
 21 C     2 shells
 l=0 nsto= 1
    2       1.808665000000        1.000000000000
 l=1 nsto= 1
    2       1.685116000000        1.000000000000
 22 C     2 shells
 l=0 nsto= 1
    2       1.808665000000        1.000000000000
 l=1 nsto= 1
    2       1.685116000000        1.000000000000
 23 C     2 shells
 l=0 nsto= 1
    2       1.808665000000        1.000000000000
 l=1 nsto= 1
    2       1.685116000000        1.000000000000
 24 C     2 shells
 l=0 nsto= 1
    2       1.808665000000        1.000000000000
 l=1 nsto= 1
    2       1.685116000000        1.000000000000
 25 C     2 shells
 l=0 nsto= 1
    2       1.808665000000        1.000000000000
 l=1 nsto= 1
    2       1.685116000000        1.000000000000
 26 C     2 shells
 l=0 nsto= 1
    2       1.808665000000        1.000000000000
 l=1 nsto= 1
    2       1.685116000000        1.000000000000
 27 C     2 shells
 l=0 nsto= 1
    2       1.808665000000        1.000000000000
 l=1 nsto= 1
    2       1.685116000000        1.000000000000
 28 H     1 shells
 l=0 nsto= 1
    1       1.188078000000        1.000000000000
 29 H     1 shells
 l=0 nsto= 1
    1       1.188078000000        1.000000000000
 30 H     1 shells
 l=0 nsto= 1
    1       1.188078000000        1.000000000000
 31 H     1 shells
 l=0 nsto= 1
    1       1.188078000000        1.000000000000
 32 H     1 shells
 l=0 nsto= 1
    1       1.188078000000        1.000000000000
 33 H     1 shells
 l=0 nsto= 1
    1       1.188078000000        1.000000000000
 34 H     1 shells
 l=0 nsto= 1
    1       1.188078000000        1.000000000000
 35 H     1 shells
 l=0 nsto= 1
    1       1.188078000000        1.000000000000
 36 H     1 shells
 l=0 nsto= 1
    1       1.188078000000        1.000000000000
 37 H     1 shells
 l=0 nsto= 1
    1       1.188078000000        1.000000000000
 38 H     1 shells
 l=0 nsto= 1
    1       1.188078000000        1.000000000000
 39 H     1 shells
 l=0 nsto= 1
    1       1.188078000000        1.000000000000
 40 H     1 shells
 l=0 nsto= 1
    1       1.188078000000        1.000000000000
 41 H     1 shells
 l=0 nsto= 1
    1       1.188078000000        1.000000000000
 42 H     1 shells
 l=0 nsto= 1
    1       1.188078000000        1.000000000000
 43 H     1 shells
 l=0 nsto= 1
    1       1.188078000000        1.000000000000
 44 H     1 shells
 l=0 nsto= 1
    1       1.188078000000        1.000000000000
 45 H     1 shells
 l=0 nsto= 1
    1       1.188078000000        1.000000000000
 46 H     1 shells
 l=0 nsto= 1
    1       1.188078000000        1.000000000000
 47 H     1 shells
 l=0 nsto= 1
    1       1.188078000000        1.000000000000
 48 H     1 shells
 l=0 nsto= 1
    1       1.188078000000        1.000000000000
------------------------------------------------------------------------------
                           ORCA NDO INTEGRAL CALCULATION
------------------------------------------------------------------------------

--------------
NDO PARAMETERS
--------------

Gamma integral treatment              ... MOPAC
Nuclear repulsuion treatment          ... AM1-style
Interaction factors:
s-s (sigma) =    1.0000
s-p (sigma) =    1.0000
s-d (sigma) =    1.0000
p-p (sigma) =    1.0000  p-p(pi) =    1.0000
p-d (sigma) =    1.0000  p-d(pi) =    1.0000
d-d (sigma) =    1.0000  d-d(pi) =    1.0000 d-d (delta) =    1.0000

--------------------------
Parameters for Element H :
--------------------------
 One-electron parameters (in eV)
  U(s)  =   -11.396427 Beta(s) =     6.173787 Neff(s) =     1.000000
 One-center electron repulsion parameters (in eV)
  G(s,s)=    12.848000
--------------------------
Parameters for Element C :
--------------------------
 One-electron parameters (in eV)
  U(s)  =   -52.028658 Beta(s) =    15.715783 Neff(s) =     2.000000
  U(p)  =   -39.614239 Beta(p) =     7.719283 Neff(p) =     2.000000 
 One-center electron repulsion parameters (in eV)
  G(s,s)=    12.230000
  G(s,p)=    11.470000 G(p,p)  =    10.253300
 Slater-Condon parameters (in eV)
 F2(p,p)=     5.1667 G1(s,p)=    7.2900
--------------------------
Parameters for Element N :
--------------------------
 One-electron parameters (in eV)
  U(s)  =   -71.860000 Beta(s) =    20.299110 Neff(s) =     2.000000
  U(p)  =   -57.167581 Beta(p) =    18.238666 Neff(p) =     3.000000 
 One-center electron repulsion parameters (in eV)
  G(s,s)=    13.590000
  G(s,p)=    12.660000 G(p,p)  =    12.053330
 Slater-Condon parameters (in eV)
 F2(p,p)=     5.7917 G1(s,p)=    9.4200
--------------------------
Parameters for Element O :
--------------------------
 One-electron parameters (in eV)
  U(s)  =   -97.830000 Beta(s) =    29.272773 Neff(s) =     2.000000
  U(p)  =   -78.262380 Beta(p) =    29.272773 Neff(p) =     4.000000 
 One-center electron repulsion parameters (in eV)
  G(s,s)=    15.420000
  G(s,p)=    14.480000 G(p,p)  =    13.493330
 Slater-Condon parameters (in eV)
 F2(p,p)=     6.4167 G1(s,p)=   11.8200
--------------------------
Parameters for Element S :
--------------------------
 One-electron parameters (in eV)
  U(s)  =   -56.694056 Beta(s) =     3.920566 Neff(s) =     2.000000
  U(p)  =   -48.717049 Beta(p) =     7.905278 Neff(p) =     4.000000 
 One-center electron repulsion parameters (in eV)
  G(s,s)=    12.880000
  G(s,p)=    11.260000 G(p,p)  =     9.186667
 Slater-Condon parameters (in eV)
 F2(p,p)=     4.4583 G1(s,p)=    6.7800

 Number of atoms                    ....   49
 Number of basis functions          ....  133

 Overlap integrals                  .... done
 One electron matrix                .... done
 Nuclear repulsion                  .... done
 Integral list                      .... done
 Electron-electron repulsion        .... done
-------------------------------------------------------------------------------
                                 ORCA SCF
-------------------------------------------------------------------------------

------------
SCF SETTINGS
------------
Hamiltonian:
 ZDO-Hamiltonian        Method          .... NDDO


General Settings:
 Integral files         IntName         .... orca_tmp/2_09a
 Hartree-Fock type      HFTyp           .... RHF
 Total Charge           Charge          ....    0
 Multiplicity           Mult            ....    1
 Number of Electrons    NEL             ....  142
 Basis Dimension        Dim             ....  133
 Nuclear Repulsion      ENuc            ....   1190.8703364605 Eh

Convergence Acceleration:
 DIIS                   CNVDIIS         .... on
   Start iteration      DIISMaxIt       ....    12
   Startup error        DIISStart       ....  0.200000
   # of expansion vecs  DIISMaxEq       ....     5
   Bias factor          DIISBfac        ....   1.050
   Max. coefficient     DIISMaxC        ....  10.000
 Newton-Raphson         CNVNR           .... off
 SOSCF                  CNVSOSCF        .... on
   Start iteration      SOSCFMaxIt      ....   150
   Startup grad/error   SOSCFStart      ....  0.003300
 Level Shifting         CNVShift        .... on
   Level shift para.    LevelShift      ....    0.2500
   Turn off err/grad.   ShiftErr        ....    0.0010
 Zerner damping         CNVZerner       .... off
 Static damping         CNVDamp         .... on
   Fraction old density DampFac         ....    0.7000
   Max. Damping (<1)    DampMax         ....    0.9800
   Min. Damping (>=0)   DampMin         ....    0.0000
   Turn off err/grad.   DampErr         ....    0.1000
 Fernandez-Rico         CNVRico         .... off

SCF Procedure:
 Maximum # iterations   MaxIter         ....   125
 SCF integral mode      SCFMode         .... Conventional
 Integral Buffer length BufferLength    .... 1048576
 Integral index format  IndFormat       ....     0
 Integral value format  ValFormat       ....     0
 Integral Storage       Thresh          ....  1.000e-08 Eh

Convergence Tolerance:
 Convergence Check Mode ConvCheckMode   .... Total+1el-Energy
 Energy Change          TolE            ....  1.000e-06 Eh
 1-El. energy change                    ....  1.000e-03 Eh
 Orbital Gradient       TolG            ....  5.000e-05
 Orbital Rotation angle TolX            ....  5.000e-05
 DIIS Error             TolErr          ....  1.000e-06


Diagonalization of the overlap matrix:
Smallest eigenvalue                        ... 2.122e-01
Time for diagonalization                   ...    0.002 sec
Threshold for overlap eigenvalues          ... 1.000e-08
Number of eigenvalues below threshold      ... 0
Time for construction of square roots      ...    0.001 sec
Total time needed                          ...    0.003 sec

-------------------------------
INITIAL GUESS: EXTENDED HUECKEL
-------------------------------
EHT matrix was read from disk
EHT matrix was diagonalized
Initial density was built
                      ------------------
                      INITIAL GUESS DONE
                      ------------------

 InCore treatment chosen:
   Memory dedicated               ...    1024 MB
   Memory needed                  ...      0 MB
   Number of tiny    integrals    ...    1109
   Number of small   integrals    ...   15615
   Number of regular integrals    ...   27601

--------------
SCF ITERATIONS
--------------
ITER       Energy         Delta-E        Max-DP      RMS-DP      [F,P]     Damp
  0   -165.9529474756   0.000000000000 0.11258621  0.00281058  0.1999892 0.7000
  1   -166.1383196916  -0.185372215995 0.11764409  0.00295288  0.1681427 0.7000
                               ***Turning on DIIS***
  2   -166.3032344443  -0.164914752710 0.09967066  0.00253698  0.1351286 0.7000
  3   -165.4853339595   0.817900484822 0.08513689  0.00229043  0.1067084 0.7000
  4   -165.3466674224   0.138666537093 0.23607312  0.00674045  0.0820412 0.0000
  5   -166.6647484959  -1.318081073527 0.02801233  0.00119257  0.0175798 0.0000
  6   -166.7875449734  -0.122796477406 0.02078842  0.00078304  0.0086448 0.0000
  7   -166.8286528186  -0.041107845208 0.01421940  0.00049615  0.0041261 0.0000
  8   -166.8453838975  -0.016731078923 0.01040216  0.00037340  0.0030551 0.0000
  9   -166.8539807328  -0.008596835308 0.00813604  0.00031692  0.0021960 0.0000
 10   -166.8603700545  -0.006389321748 0.00619481  0.00022543  0.0014649 0.0000
                      *** Initiating the SOSCF procedure ***
                           *** Shutting down DIIS ***
                      *** Re-Reading the Fockian *** 
                      *** Removing any level shift *** 
ITER      Energy       Delta-E        Grad      Rot      Max-DP    RMS-DP
 11   -166.86371651  -0.0033464596  0.002797  0.002797  0.008759  0.000277
 12   -166.87019707  -0.0064805596  0.000327  0.001424  0.001073  0.000036
 13   -166.87020220  -0.0000051299  0.000204  0.002436  0.001655  0.000062
 14   -166.87020573  -0.0000035242  0.000040  0.000195  0.000152  0.000006
                 **** Energy Check signals convergence ****
              ***Rediagonalizing the Fockian in SOSCF/NRSCF***

               *****************************************************
               *                     SUCCESS                       *
               *           SCF CONVERGED AFTER  15 CYCLES          *
               *****************************************************


----------------
TOTAL SCF ENERGY
----------------

Total Energy       :         -166.87020586 Eh           -4540.76915 eV

Components:
Nuclear Repulsion  :         1190.87033646 Eh           32405.22931 eV
Electronic Energy  :        -1357.74054232 Eh          -36945.99845 eV

One Electron Energy:        -2616.27186891 Eh          -71192.37690 eV
Two Electron Energy:         1258.53132659 Eh           34246.37845 eV


---------------
SCF CONVERGENCE
---------------

  Last Energy change         ...   -1.3547e-07  Tolerance :   1.0000e-06
  Last MAX-Density change    ...    1.7528e-04  Tolerance :   1.0000e-05
  Last RMS-Density change    ...    6.6561e-06  Tolerance :   1.0000e-06
  Last Orbital Gradient      ...    1.9087e-05  Tolerance :   5.0000e-05
  Last Orbital Rotation      ...    2.1084e-04  Tolerance :   5.0000e-05

             **** THE GBW FILE WAS UPDATED (orca_tmp/2_09a.gbw) ****
             **** DENSITY FILE WAS UPDATED (orca_tmp/2_09a.scfp.tmp) ****
             **** ENERGY FILE WAS UPDATED (orca_tmp/2_09a.en.tmp) ****
----------------
ORBITAL ENERGIES
----------------

  NO   OCC          E(Eh)            E(eV) 
   0   2.0000      -1.613286       -43.8997 
   1   2.0000      -1.458035       -39.6751 
   2   2.0000      -1.457357       -39.6567 
   3   2.0000      -1.416863       -38.5548 
   4   2.0000      -1.356885       -36.9227 
   5   2.0000      -1.339540       -36.4507 
   6   2.0000      -1.271592       -34.6018 
   7   2.0000      -1.231731       -33.5171 
   8   2.0000      -1.179166       -32.0867 
   9   2.0000      -1.161478       -31.6054 
  10   2.0000      -1.145862       -31.1805 
  11   2.0000      -1.143829       -31.1252 
  12   2.0000      -1.137753       -30.9598 
  13   2.0000      -1.069822       -29.1113 
  14   2.0000      -1.038877       -28.2693 
  15   2.0000      -0.927258       -25.2320 
  16   2.0000      -0.881499       -23.9868 
  17   2.0000      -0.870014       -23.6743 
  18   2.0000      -0.860733       -23.4217 
  19   2.0000      -0.856276       -23.3005 
  20   2.0000      -0.850955       -23.1557 
  21   2.0000      -0.812716       -22.1151 
  22   2.0000      -0.784542       -21.3485 
  23   2.0000      -0.779593       -21.2138 
  24   2.0000      -0.725520       -19.7424 
  25   2.0000      -0.674625       -18.3575 
  26   2.0000      -0.654707       -17.8155 
  27   2.0000      -0.645514       -17.5653 
  28   2.0000      -0.637415       -17.3449 
  29   2.0000      -0.626373       -17.0445 
  30   2.0000      -0.617881       -16.8134 
  31   2.0000      -0.595429       -16.2025 
  32   2.0000      -0.590920       -16.0797 
  33   2.0000      -0.584823       -15.9138 
  34   2.0000      -0.572175       -15.5697 
  35   2.0000      -0.561271       -15.2730 
  36   2.0000      -0.550421       -14.9777 
  37   2.0000      -0.548030       -14.9127 
  38   2.0000      -0.540204       -14.6997 
  39   2.0000      -0.538132       -14.6433 
  40   2.0000      -0.525939       -14.3115 
  41   2.0000      -0.523857       -14.2549 
  42   2.0000      -0.520565       -14.1653 
  43   2.0000      -0.511343       -13.9143 
  44   2.0000      -0.505077       -13.7438 
  45   2.0000      -0.500801       -13.6275 
  46   2.0000      -0.489411       -13.3176 
  47   2.0000      -0.483094       -13.1457 
  48   2.0000      -0.476963       -12.9788 
  49   2.0000      -0.472814       -12.8659 
  50   2.0000      -0.467257       -12.7147 
  51   2.0000      -0.459481       -12.5031 
  52   2.0000      -0.454805       -12.3759 
  53   2.0000      -0.442243       -12.0340 
  54   2.0000      -0.435908       -11.8616 
  55   2.0000      -0.435423       -11.8485 
  56   2.0000      -0.428970       -11.6729 
  57   2.0000      -0.426978       -11.6187 
  58   2.0000      -0.423982       -11.5371 
  59   2.0000      -0.421221       -11.4620 
  60   2.0000      -0.407497       -11.0886 
  61   2.0000      -0.399227       -10.8635 
  62   2.0000      -0.387270       -10.5381 
  63   2.0000      -0.378347       -10.2953 
  64   2.0000      -0.370206       -10.0738 
  65   2.0000      -0.356466        -9.6999 
  66   2.0000      -0.354164        -9.6373 
  67   2.0000      -0.351816        -9.5734 
  68   2.0000      -0.327214        -8.9040 
  69   2.0000      -0.324369        -8.8265 
  70   2.0000      -0.232969        -6.3394 
  71   0.0000      -0.003435        -0.0935 
  72   0.0000       0.014185         0.3860 
  73   0.0000       0.020073         0.5462 
  74   0.0000       0.025724         0.7000 
  75   0.0000       0.045728         1.2443 
  76   0.0000       0.062719         1.7067 
  77   0.0000       0.070523         1.9190 
  78   0.0000       0.087766         2.3882 
  79   0.0000       0.103173         2.8075 
  80   0.0000       0.115664         3.1474 
  81   0.0000       0.122713         3.3392 
  82   0.0000       0.128671         3.5013 
  83   0.0000       0.132564         3.6073 
  84   0.0000       0.139653         3.8001 
  85   0.0000       0.140563         3.8249 
  86   0.0000       0.143239         3.8977 
  87   0.0000       0.143719         3.9108 
  88   0.0000       0.150679         4.1002 
  89   0.0000       0.151421         4.1204 
  90   0.0000       0.155399         4.2286 
  91   0.0000       0.156934         4.2704 
  92   0.0000       0.157787         4.2936 
  93   0.0000       0.159757         4.3472 
  94   0.0000       0.161192         4.3863 
  95   0.0000       0.165054         4.4914 
  96   0.0000       0.166783         4.5384 
  97   0.0000       0.167960         4.5704 
  98   0.0000       0.168628         4.5886 
  99   0.0000       0.173006         4.7077 
 100   0.0000       0.174861         4.7582 
 101   0.0000       0.177211         4.8222 
 102   0.0000       0.177659         4.8344 
 103   0.0000       0.179039         4.8719 
 104   0.0000       0.180031         4.8989 
 105   0.0000       0.183214         4.9855 
 106   0.0000       0.184731         5.0268 
 107   0.0000       0.186396         5.0721 
 108   0.0000       0.188714         5.1352 
 109   0.0000       0.191132         5.2010 
 110   0.0000       0.191658         5.2153 
 111   0.0000       0.196812         5.3555 
 112   0.0000       0.197206         5.3663 
 113   0.0000       0.198537         5.4025 
 114   0.0000       0.199918         5.4400 
 115   0.0000       0.203035         5.5249 
 116   0.0000       0.204732         5.5711 
 117   0.0000       0.207790         5.6542 
 118   0.0000       0.208666         5.6781 
 119   0.0000       0.209874         5.7110 
 120   0.0000       0.211469         5.7544 
 121   0.0000       0.215149         5.8545 
 122   0.0000       0.216682         5.8962 
 123   0.0000       0.220145         5.9904 
 124   0.0000       0.224560         6.1106 
 125   0.0000       0.224716         6.1148 
 126   0.0000       0.233129         6.3438 
 127   0.0000       0.240904         6.5553 
 128   0.0000       0.242523         6.5994 
 129   0.0000       0.251016         6.8305 
 130   0.0000       0.257850         7.0165 
 131   0.0000       0.258432         7.0323 
 132   0.0000       0.278018         7.5653 

                    ********************************
                    * MULLIKEN POPULATION ANALYSIS *
                    ********************************

-----------------------
MULLIKEN ATOMIC CHARGES
-----------------------
   0 C :   -0.203757
   1 C :   -0.194076
   2 C :   -0.104211
   3 C :   -1.451654
   4 C :   -0.055232
   5 C :   -0.119332
   6 S :    3.022790
   7 C :   -1.421817
   8 C :    0.084564
   9 C :    0.219504
  10 O :   -0.218893
  11 N :   -0.194348
  12 O :   -0.216217
  13 C :    0.007059
  14 C :   -0.297059
  15 C :   -0.165424
  16 N :   -0.382371
  17 C :   -0.173729
  18 C :   -0.309197
  19 N :   -0.103149
  20 C :   -0.015510
  21 C :   -0.152680
  22 C :   -0.103025
  23 C :   -0.171252
  24 C :   -0.197178
  25 C :   -0.192396
  26 C :   -0.198570
  27 C :   -0.175284
  28 H :    0.174780
  29 H :    0.167834
  30 H :    0.137995
  31 H :    0.186784
  32 H :    0.129310
  33 H :    0.149565
  34 H :    0.122975
  35 H :    0.133398
  36 H :    0.174792
  37 H :    0.187861
  38 H :    0.124006
  39 H :    0.189937
  40 H :    0.135331
  41 H :    0.115034
  42 H :    0.165466
  43 H :    0.185275
  44 H :    0.215366
  45 H :    0.197373
  46 H :    0.191808
  47 H :    0.194064
  48 H :    0.203488
Sum of atomic charges:   -0.0000000

--------------------------------
MULLIKEN REDUCED ORBITAL CHARGES
--------------------------------
  0 C s       :     1.404584  s :     1.404584
      pz      :     0.988710  p :     2.799174
      px      :     0.866391
      py      :     0.944073
  1 C s       :     1.400065  s :     1.400065
      pz      :     0.949242  p :     2.794011
      px      :     0.907262
      py      :     0.937506
  2 C s       :     1.382906  s :     1.382906
      pz      :     0.964586  p :     2.721304
      px      :     0.872349
      py      :     0.884369
  3 C s       :     1.523607  s :     1.523607
      pz      :     1.456369  p :     3.928047
      px      :     1.092429
      py      :     1.379249
  4 C s       :     1.333083  s :     1.333083
      pz      :     0.979755  p :     2.722149
      px      :     0.825688
      py      :     0.916705
  5 C s       :     1.402782  s :     1.402782
      pz      :     0.924727  p :     2.716551
      px      :     0.930550
      py      :     0.861274
  6 S s       :     1.672584  s :     1.672584
      pz      :     0.546462  p :     1.304626
      px      :     0.432862
      py      :     0.325303
  7 C s       :     1.504987  s :     1.504987
      pz      :     1.384952  p :     3.916830
      px      :     1.464046
      py      :     1.067833
  8 C s       :     1.281050  s :     1.281050
      pz      :     0.969091  p :     2.634386
      px      :     0.815555
      py      :     0.849739
  9 C s       :     1.298875  s :     1.298875
      pz      :     0.837362  p :     2.481622
      px      :     0.787253
      py      :     0.857006
 10 O s       :     1.937829  s :     1.937829
      pz      :     1.728874  p :     4.281064
      px      :     1.350046
      py      :     1.202143
 11 N s       :     1.873387  s :     1.873387
      pz      :     1.191809  p :     3.320961
      px      :     1.146274
      py      :     0.982878
 12 O s       :     1.921113  s :     1.921113
      pz      :     1.666249  p :     4.295104
      px      :     1.100492
      py      :     1.528363
 13 C s       :     1.384951  s :     1.384951
      pz      :     0.865567  p :     2.607990
      px      :     0.833843
      py      :     0.908579
 14 C s       :     1.451396  s :     1.451396
      pz      :     0.976447  p :     2.845663
      px      :     0.916809
      py      :     0.952407
 15 C s       :     1.423811  s :     1.423811
      pz      :     0.855795  p :     2.741613
      px      :     0.953494
      py      :     0.932323
 16 N s       :     1.759525  s :     1.759525
      pz      :     1.010596  p :     3.622846
      px      :     1.125137
      py      :     1.487114
 17 C s       :     1.426288  s :     1.426288
      pz      :     0.917187  p :     2.747442
      px      :     0.881757
      py      :     0.948497
 18 C s       :     1.453648  s :     1.453648
      pz      :     0.931872  p :     2.855548
      px      :     0.975186
      py      :     0.948490
 19 N s       :     1.898051  s :     1.898051
      pz      :     1.305851  p :     3.205097
      px      :     0.990566
      py      :     0.908680
 20 C s       :     1.344822  s :     1.344822
      pz      :     0.904911  p :     2.670688
      px      :     0.868255
      py      :     0.897521
 21 C s       :     1.425618  s :     1.425618
      pz      :     0.885485  p :     2.727062
      px      :     0.915452
      py      :     0.926126
 22 C s       :     1.364019  s :     1.364019
      pz      :     0.868342  p :     2.739006
      px      :     0.917624
      py      :     0.953040
 23 C s       :     1.413349  s :     1.413349
      pz      :     0.889678  p :     2.757903
      px      :     0.920443
      py      :     0.947781
 24 C s       :     1.413137  s :     1.413137
      pz      :     0.844681  p :     2.784041
      px      :     0.965561
      py      :     0.973799
 25 C s       :     1.413164  s :     1.413164
      pz      :     0.943150  p :     2.779232
      px      :     0.903029
      py      :     0.933053
 26 C s       :     1.412241  s :     1.412241
      pz      :     0.884407  p :     2.786329
      px      :     0.933420
      py      :     0.968502
 27 C s       :     1.411412  s :     1.411412
      pz      :     0.840165  p :     2.763872
      px      :     0.957361
      py      :     0.966345
 28 H s       :     0.825220  s :     0.825220
 29 H s       :     0.832166  s :     0.832166
 30 H s       :     0.862005  s :     0.862005
 31 H s       :     0.813216  s :     0.813216
 32 H s       :     0.870690  s :     0.870690
 33 H s       :     0.850435  s :     0.850435
 34 H s       :     0.877025  s :     0.877025
 35 H s       :     0.866602  s :     0.866602
 36 H s       :     0.825208  s :     0.825208
 37 H s       :     0.812139  s :     0.812139
 38 H s       :     0.875994  s :     0.875994
 39 H s       :     0.810063  s :     0.810063
 40 H s       :     0.864669  s :     0.864669
 41 H s       :     0.884966  s :     0.884966
 42 H s       :     0.834534  s :     0.834534
 43 H s       :     0.814725  s :     0.814725
 44 H s       :     0.784634  s :     0.784634
 45 H s       :     0.802627  s :     0.802627
 46 H s       :     0.808192  s :     0.808192
 47 H s       :     0.805936  s :     0.805936
 48 H s       :     0.796512  s :     0.796512


                     *******************************
                     * LOEWDIN POPULATION ANALYSIS *
                     *******************************

----------------------
LOEWDIN ATOMIC CHARGES
----------------------
   0 C :   -0.144441
   1 C :   -0.140652
   2 C :   -0.068272
   3 C :   -1.235235
   4 C :   -0.066444
   5 C :   -0.066516
   6 S :    2.670410
   7 C :   -1.218244
   8 C :    0.040538
   9 C :    0.172080
  10 O :   -0.181591
  11 N :   -0.152701
  12 O :   -0.182628
  13 C :    0.049936
  14 C :   -0.188728
  15 C :   -0.074950
  16 N :   -0.292607
  17 C :   -0.080804
  18 C :   -0.203539
  19 N :   -0.090594
  20 C :   -0.038902
  21 C :   -0.053519
  22 C :   -0.082809
  23 C :   -0.110604
  24 C :   -0.132142
  25 C :   -0.127430
  26 C :   -0.134242
  27 C :   -0.115349
  28 H :    0.114516
  29 H :    0.108384
  30 H :    0.085755
  31 H :    0.124569
  32 H :    0.074308
  33 H :    0.093794
  34 H :    0.073143
  35 H :    0.080278
  36 H :    0.112871
  37 H :    0.136344
  38 H :    0.072824
  39 H :    0.123480
  40 H :    0.083023
  41 H :    0.066722
  42 H :    0.106723
  43 H :    0.121772
  44 H :    0.146103
  45 H :    0.131914
  46 H :    0.127448
  47 H :    0.129386
  48 H :    0.136623

-------------------------------
LOEWDIN REDUCED ORBITAL CHARGES
-------------------------------
  0 C s       :     1.206631  s :     1.206631
      pz      :     1.010572  p :     2.937810
      px      :     0.942845
      py      :     0.984393
  1 C s       :     1.201154  s :     1.201154
      pz      :     0.990249  p :     2.939498
      px      :     0.967509
      py      :     0.981740
  2 C s       :     1.190301  s :     1.190301
      pz      :     0.997083  p :     2.877971
      px      :     0.931148
      py      :     0.949741
  3 C s       :     1.332217  s :     1.332217
      pz      :     1.428617  p :     3.903018
      px      :     1.122935
      py      :     1.351467
  4 C s       :     1.183329  s :     1.183329
      pz      :     1.015083  p :     2.883115
      px      :     0.892537
      py      :     0.975495
  5 C s       :     1.209321  s :     1.209321
      pz      :     0.956527  p :     2.857195
      px      :     0.974655
      py      :     0.926013
  6 S s       :     1.693747  s :     1.693747
      pz      :     0.626092  p :     1.635844
      px      :     0.560253
      py      :     0.449500
  7 C s       :     1.316666  s :     1.316666
      pz      :     1.383205  p :     3.901578
      px      :     1.417978
      py      :     1.100395
  8 C s       :     1.173121  s :     1.173121
      pz      :     1.007667  p :     2.786341
      px      :     0.858227
      py      :     0.920448
  9 C s       :     1.218871  s :     1.218871
      pz      :     0.853159  p :     2.609049
      px      :     0.849219
      py      :     0.906671
 10 O s       :     1.890031  s :     1.890031
      pz      :     1.727629  p :     4.291560
      px      :     1.356516
      py      :     1.207415
 11 N s       :     1.725211  s :     1.725211
      pz      :     1.196911  p :     3.427490
      px      :     1.194921
      py      :     1.035658
 12 O s       :     1.864282  s :     1.864282
      pz      :     1.668253  p :     4.318346
      px      :     1.117430
      py      :     1.532664
 13 C s       :     1.226336  s :     1.226336
      pz      :     0.917714  p :     2.723728
      px      :     0.872771
      py      :     0.933243
 14 C s       :     1.224683  s :     1.224683
      pz      :     1.008302  p :     2.964045
      px      :     0.961855
      py      :     0.993888
 15 C s       :     1.219834  s :     1.219834
      pz      :     0.890925  p :     2.855116
      px      :     0.990671
      py      :     0.973520
 16 N s       :     1.611676  s :     1.611676
      pz      :     1.038473  p :     3.680932
      px      :     1.147973
      py      :     1.494485
 17 C s       :     1.221031  s :     1.221031
      pz      :     0.951172  p :     2.859773
      px      :     0.922340
      py      :     0.986260
 18 C s       :     1.229601  s :     1.229601
      pz      :     0.975027  p :     2.973938
      px      :     1.010015
      py      :     0.988896
 19 N s       :     1.812459  s :     1.812459
      pz      :     1.307606  p :     3.278135
      px      :     1.042152
      py      :     0.928377
 20 C s       :     1.250941  s :     1.250941
      pz      :     0.915948  p :     2.787961
      px      :     0.928442
      py      :     0.943570
 21 C s       :     1.191218  s :     1.191218
      pz      :     0.935222  p :     2.862301
      px      :     0.959969
      py      :     0.967110
 22 C s       :     1.203314  s :     1.203314
      pz      :     0.928890  p :     2.879495
      px      :     0.965974
      py      :     0.984630
 23 C s       :     1.216407  s :     1.216407
      pz      :     0.957006  p :     2.894197
      px      :     0.964216
      py      :     0.972975
 24 C s       :     1.214497  s :     1.214497
      pz      :     0.929520  p :     2.917645
      px      :     0.993848
      py      :     0.994277
 25 C s       :     1.214796  s :     1.214796
      pz      :     0.988448  p :     2.912635
      px      :     0.955719
      py      :     0.968467
 26 C s       :     1.213678  s :     1.213678
      pz      :     0.953222  p :     2.920564
      px      :     0.975392
      py      :     0.991950
 27 C s       :     1.215239  s :     1.215239
      pz      :     0.925347  p :     2.900110
      px      :     0.986751
      py      :     0.988012
 28 H s       :     0.885484  s :     0.885484
 29 H s       :     0.891616  s :     0.891616
 30 H s       :     0.914245  s :     0.914245
 31 H s       :     0.875431  s :     0.875431
 32 H s       :     0.925692  s :     0.925692
 33 H s       :     0.906206  s :     0.906206
 34 H s       :     0.926857  s :     0.926857
 35 H s       :     0.919722  s :     0.919722
 36 H s       :     0.887129  s :     0.887129
 37 H s       :     0.863656  s :     0.863656
 38 H s       :     0.927176  s :     0.927176
 39 H s       :     0.876520  s :     0.876520
 40 H s       :     0.916977  s :     0.916977
 41 H s       :     0.933278  s :     0.933278
 42 H s       :     0.893277  s :     0.893277
 43 H s       :     0.878228  s :     0.878228
 44 H s       :     0.853897  s :     0.853897
 45 H s       :     0.868086  s :     0.868086
 46 H s       :     0.872552  s :     0.872552
 47 H s       :     0.870614  s :     0.870614
 48 H s       :     0.863377  s :     0.863377


                      *****************************
                      * MAYER POPULATION ANALYSIS *
                      *****************************

  NA   - Mulliken gross atomic population
  ZA   - Total nuclear charge
  QA   - Mulliken gross atomic charge
  VA   - Mayer's total valence
  BVA  - Mayer's bonded valence
  FA   - Mayer's free valence

  ATOM       NA         ZA         QA         VA         BVA        FA
  0 C      4.2038     4.0000    -0.2038     3.7837     3.7837    -0.0000
  1 C      4.1941     4.0000    -0.1941     3.7864     3.7864     0.0000
  2 C      4.1042     4.0000    -0.1042     3.7806     3.7806     0.0000
  3 C      5.4517     4.0000    -1.4517     3.0554     3.0554    -0.0000
  4 C      4.0552     4.0000    -0.0552     3.8124     3.8124     0.0000
  5 C      4.1193     4.0000    -0.1193     3.7758     3.7758     0.0000
  6 S      2.9772     6.0000     3.0228     1.5246     1.5246    -0.0000
  7 C      5.4218     4.0000    -1.4218     2.9317     2.9317     0.0000
  8 C      3.9154     4.0000     0.0846     3.7996     3.7996     0.0000
  9 C      3.7805     4.0000     0.2195     3.8077     3.8077    -0.0000
 10 O      6.2189     6.0000    -0.2189     2.2810     2.2810    -0.0000
 11 N      5.1943     5.0000    -0.1943     2.9615     2.9615    -0.0000
 12 O      6.2162     6.0000    -0.2162     2.1060     2.1060    -0.0000
 13 C      3.9929     4.0000     0.0071     3.7708     3.7708     0.0000
 14 C      4.2971     4.0000    -0.2971     3.7741     3.7741    -0.0000
 15 C      4.1654     4.0000    -0.1654     3.7576     3.7576     0.0000
 16 N      5.3824     5.0000    -0.3824     2.8998     2.8998    -0.0000
 17 C      4.1737     4.0000    -0.1737     3.7541     3.7541     0.0000
 18 C      4.3092     4.0000    -0.3092     3.7798     3.7798     0.0000
 19 N      5.1031     5.0000    -0.1031     2.8650     2.8650    -0.0000
 20 C      4.0155     4.0000    -0.0155     3.8299     3.8299    -0.0000
 21 C      4.1527     4.0000    -0.1527     3.7271     3.7271    -0.0000
 22 C      4.1030     4.0000    -0.1030     3.8271     3.8271     0.0000
 23 C      4.1713     4.0000    -0.1713     3.7712     3.7712     0.0000
 24 C      4.1972     4.0000    -0.1972     3.7798     3.7798    -0.0000
 25 C      4.1924     4.0000    -0.1924     3.7818     3.7818     0.0000
 26 C      4.1986     4.0000    -0.1986     3.7808     3.7808     0.0000
 27 C      4.1753     4.0000    -0.1753     3.7760     3.7760    -0.0000
 28 H      0.8252     1.0000     0.1748     0.9695     0.9695    -0.0000
 29 H      0.8322     1.0000     0.1678     0.9718     0.9718     0.0000
 30 H      0.8620     1.0000     0.1380     0.9810     0.9810     0.0000
 31 H      0.8132     1.0000     0.1868     0.9651     0.9651    -0.0000
 32 H      0.8707     1.0000     0.1293     0.9833     0.9833     0.0000
 33 H      0.8504     1.0000     0.1496     0.9776     0.9776     0.0000
 34 H      0.8770     1.0000     0.1230     0.9849     0.9849    -0.0000
 35 H      0.8666     1.0000     0.1334     0.9822     0.9822     0.0000
 36 H      0.8252     1.0000     0.1748     0.9694     0.9694    -0.0000
 37 H      0.8121     1.0000     0.1879     0.9647     0.9647    -0.0000
 38 H      0.8760     1.0000     0.1240     0.9846     0.9846    -0.0000
 39 H      0.8101     1.0000     0.1899     0.9639     0.9639    -0.0000
 40 H      0.8647     1.0000     0.1353     0.9817     0.9817     0.0000
 41 H      0.8850     1.0000     0.1150     0.9868     0.9868     0.0000
 42 H      0.8345     1.0000     0.1655     0.9726     0.9726    -0.0000
 43 H      0.8147     1.0000     0.1853     0.9657     0.9657    -0.0000
 44 H      0.7846     1.0000     0.2154     0.9536     0.9536     0.0000
 45 H      0.8026     1.0000     0.1974     0.9610     0.9610     0.0000
 46 H      0.8082     1.0000     0.1918     0.9632     0.9632     0.0000
 47 H      0.8059     1.0000     0.1941     0.9623     0.9623     0.0000
 48 H      0.7965     1.0000     0.2035     0.9586     0.9586     0.0000

  Mayer bond orders larger than 0.1
B(  0-C ,  1-C ) :   1.1014 B(  0-C ,  5-C ) :   1.5671 B(  0-C , 28-H ) :   0.8967 
B(  1-C ,  2-C ) :   1.5988 B(  1-C , 29-H ) :   0.8985 B(  2-C ,  3-C ) :   1.0680 
B(  2-C ,  5-C ) :   0.1209 B(  2-C , 30-H ) :   0.8964 B(  3-C ,  4-C ) :   1.0441 
B(  3-C ,  6-S ) :   0.7043 B(  4-C ,  5-C ) :   1.0774 B(  4-C ,  8-C ) :   1.4104 
B(  5-C , 31-H ) :   0.8910 B(  6-S ,  7-C ) :   0.6095 B(  7-C ,  8-C ) :   1.0521 
B(  7-C ,  9-C ) :   1.0180 B(  8-C , 12-O ) :   1.0291 B(  9-C , 10-O ) :   1.0730 
B(  9-C , 11-N ) :   1.5259 B(  9-C , 19-N ) :   0.1185 B( 10-O , 19-N ) :   0.9952 
B( 11-N , 20-C ) :   1.1799 B( 12-O , 13-C ) :   0.9306 B( 13-C , 14-C ) :   0.9032 
B( 13-C , 18-C ) :   0.8927 B( 13-C , 32-H ) :   0.9070 B( 14-C , 15-C ) :   0.8997 
B( 14-C , 33-H ) :   0.9221 B( 14-C , 34-H ) :   0.9234 B( 15-C , 16-N ) :   0.9474 
B( 15-C , 35-H ) :   0.9153 B( 15-C , 36-H ) :   0.9097 B( 16-N , 17-C ) :   0.9468 
B( 16-N , 37-H ) :   0.9098 B( 17-C , 18-C ) :   0.8981 B( 17-C , 38-H ) :   0.9177 
B( 17-C , 39-H ) :   0.9037 B( 18-C , 40-H ) :   0.9261 B( 18-C , 41-H ) :   0.9259 
B( 19-N , 20-C ) :   1.6072 B( 20-C , 21-C ) :   0.8888 B( 21-C , 22-C ) :   0.9054 
B( 21-C , 42-H ) :   0.9120 B( 21-C , 43-H ) :   0.9083 B( 22-C , 23-C ) :   1.3219 
B( 22-C , 25-C ) :   0.1140 B( 22-C , 27-C ) :   1.3200 B( 23-C , 24-C ) :   1.3359 
B( 23-C , 26-C ) :   0.1105 B( 23-C , 44-H ) :   0.8855 B( 24-C , 25-C ) :   1.3300 
B( 24-C , 27-C ) :   0.1115 B( 24-C , 45-H ) :   0.8915 B( 25-C , 26-C ) :   1.3302 
B( 25-C , 46-H ) :   0.8937 B( 26-C , 27-C ) :   1.3368 B( 26-C , 47-H ) :   0.8924 
B( 27-C , 48-H ) :   0.8898 

-------
TIMINGS
-------

Total SCF time: 0 days 0 hours 0 min 0 sec 

Total time                  ....       0.111 sec
Sum of individual times     ....       0.102 sec  ( 91.8%)

Fock matrix formation       ....       0.046 sec  ( 41.2%)
Diagonalization             ....       0.027 sec  ( 24.6%)
Density matrix formation    ....       0.006 sec  (  5.4%)
Population analysis         ....       0.008 sec  (  7.0%)
Initial guess               ....       0.002 sec  (  2.2%)
Orbital Transformation      ....       0.000 sec  (  0.0%)
Orbital Orthonormalization  ....       0.000 sec  (  0.0%)
DIIS solution               ....       0.007 sec  (  6.0%)
SOSCF solution              ....       0.006 sec  (  5.4%)

-------------------------   --------------------
FINAL SINGLE POINT ENERGY      -166.870205863273
-------------------------   --------------------


                            ***************************************
                            *     ORCA property calculations      *
                            ***************************************

                                    ---------------------
                                    Active property flags
                                    ---------------------
   (+) Dipole Moment


------------------------------------------------------------------------------
                       ORCA ELECTRIC PROPERTIES CALCULATION
------------------------------------------------------------------------------

Dipole Moment Calculation                       ... on
Quadrupole Moment Calculation                   ... off
Polarizability Calculation                      ... off
GBWName                                         ... orca_tmp/2_09a.gbw
Electron density file                           ... orca_tmp/2_09a.scfp.tmp

-------------
DIPOLE MOMENT
-------------
                                X             Y             Z
Electronic contribution:   -121.92839       0.04452      -6.74994
Nuclear contribution   :     61.17527      -6.81688      -0.21665
                        -----------------------------------------
Total Dipole Moment    :    -60.75311      -6.77236      -6.96659
                        -----------------------------------------
Magnitude (a.u.)       :     61.52511
Magnitude (Debye)      :    156.38440

------------------------------------------------------------------------------
                      ORCA CHELPG CHARGES GENERATION
------------------------------------------------------------------------------

GBW file                           ... orca_tmp/2_09a.gbw

Reading the GBW file               ... done

Grid spacing                       ...     0.300000
Point Cut-Off                      ...     2.800000
Van-der-Waals Radii                ...        COSMO
Total charge                       ...            0


Number of points X direction       ...           49
Number of points Y direction       ...           52
Number of points Z direction       ...           50
Maximum number of possible points  ...       127400
Final number of points             ...        24043


